LAMMPS (29 Aug 2024 - Development - 6d634dc-modified)
OMP_NUM_THREADS environment is not set. Defaulting to 1 thread. (src/comm.cpp:99)
  using 1 OpenMP thread(s) per MPI task
Reading data file ...
  triclinic box = (0 0 0) to (23.496 23.496 97) with tilt (0 0 0)
  1 by 1 by 1 MPI processor grid
  reading atoms ...
  1280 atoms
  read_data CPU = 0.024 seconds
NEQUIP is using device cuda
NequIP Coeff: type 1 is element Br
NequIP Coeff: type 2 is element Cs
NequIP Coeff: type 3 is element Pb
Loading model from ./best.pth
Freezing TorchScript model...

CITE-CITE-CITE-CITE-CITE-CITE-CITE-CITE-CITE-CITE-CITE-CITE-CITE

Your simulation uses code contributions which should be cited:
- Type Label Framework: https://doi.org/10.1021/acs.jpcb.3c08419
The log file lists these citations in BibTeX format.

CITE-CITE-CITE-CITE-CITE-CITE-CITE-CITE-CITE-CITE-CITE-CITE-CITE

Neighbor list info ...
  update: every = 1 steps, delay = 5 steps, check = yes
  max neighbors/atom: 2000, page size: 100000
  master list distance cutoff = 9
  ghost atom cutoff = 9
  binsize = 4.5, bins = 6 6 22
  1 neighbor lists, perpetual/occasional/extra = 1 0 0
  (1) pair nequip, perpetual
      attributes: full, newton off
      pair build: full/bin/atomonly
      stencil: full/bin/3d
      bin: standard
Setting up Verlet run ...
  Unit style    : metal
  Current step  : 0
  Time step     : 0.003
Per MPI rank memory allocation (min/avg/max) = 3.23 | 3.23 | 3.23 Mbytes
   Step          Temp          PotEng         KinEng         TotEng         Press            Lx             Ly             Lz             Xy             Xz             Yz      
         0   900           -32240.851      148.79135     -32092.06       11552.395      23.496         23.496         97             0              0              0            
       100   983.09061     -32321.418      162.5282      -32158.889      11009.809      23.496         23.496         97             0              0              0            
       200   916.18953     -32346.271      151.46787     -32194.803      7487.6421      23.496         23.496         97             0              0              0            
       300   905.93067     -32357.787      149.77183     -32208.016      7094.9499      23.496         23.496         97             0              0              0            
       400   896.99754     -32349.495      148.29498     -32201.2        7650.9384      23.496         23.496         97             0              0              0            
       500   937.96011     -32365.043      155.06706     -32209.976      7031.9533      23.496         23.496         97             0              0              0            
       600   896.55161     -32360.56       148.22125     -32212.339      7077.5483      23.496         23.496         97             0              0              0            
       700   876.52309     -32354.484      144.91006     -32209.574      8199.3588      23.496         23.496         97             0              0              0            
       800   903.63862     -32351.782      149.3929      -32202.389      8247.3258      23.496         23.496         97             0              0              0            
       900   928.14839     -32356.051      153.44495     -32202.606      8275.882       23.496         23.496         97             0              0              0            
      1000   893.47768     -32359.739      147.71306     -32212.026      8043.065       23.496         23.496         97             0              0              0            
Loop time of 130.851 on 1 procs for 1000 steps with 1280 atoms

Performance: 1.981 ns/day, 12.116 hours/ns, 7.642 timesteps/s, 9.782 katom-step/s
97.0% CPU use with 1 MPI tasks x 1 OpenMP threads

MPI task timing breakdown:
Section |  min time  |  avg time  |  max time  |%varavg| %total
---------------------------------------------------------------
Pair    | 130.46     | 130.46     | 130.46     |   0.0 | 99.70
Neigh   | 0.29945    | 0.29945    | 0.29945    |   0.0 |  0.23
Comm    | 0.014131   | 0.014131   | 0.014131   |   0.0 |  0.01
Output  | 0.051583   | 0.051583   | 0.051583   |   0.0 |  0.04
Modify  | 0.020295   | 0.020295   | 0.020295   |   0.0 |  0.02
Other   |            | 0.004212   |            |       |  0.00

Nlocal:           1280 ave        1280 max        1280 min
Histogram: 1 0 0 0 0 0 0 0 0 0
Nghost:           3656 ave        3656 max        3656 min
Histogram: 1 0 0 0 0 0 0 0 0 0
Neighs:              0 ave           0 max           0 min
Histogram: 1 0 0 0 0 0 0 0 0 0
FullNghs:        92522 ave       92522 max       92522 min
Histogram: 1 0 0 0 0 0 0 0 0 0

Total # of neighbors = 92522
Ave neighs/atom = 72.282813
Neighbor list builds = 88
Dangerous builds = 0
System init for write_data ...
Setting up Verlet run ...
  Unit style    : metal
  Current step  : 0
  Time step     : 0.003
Per MPI rank memory allocation (min/avg/max) = 3.23 | 3.23 | 3.23 Mbytes
   Step          Temp          PotEng         KinEng         TotEng         Press            Lx             Ly             Lz             Xy             Xz             Yz      
         0   893.47768     -32359.739      147.71306     -32212.026      8043.0679      23.496         23.496         97             0              0              0            
       100   855.04875     -32359.043      141.35985     -32217.684      2855.2319      23.496         23.496         100.58594      0              0              0            
       200   835.63607     -32355.777      138.15047     -32217.627      516.90885      23.496         23.496         102.42762      0              0              0            
       300   862.00703     -32358.427      142.51021     -32215.917      1466.6067      23.496         23.496         102.33277      0              0              0            
       400   849.07269     -32352.575      140.37186     -32212.203      1202.6956      23.496         23.496         102.47472      0              0              0            
       500   870.77915     -32355.346      143.96045     -32211.385      160.29859      23.496         23.496         102.88892      0              0              0            
       600   899.70287     -32360.477      148.74223     -32211.735      663.46246      23.496         23.496         103.5721       0              0              0            
       700   869.01916     -32354.138      143.66949     -32210.469      668.79952      23.496         23.496         104.19715      0              0              0            
       800   853.98161     -32350.381      141.18342     -32209.198      1123.5316      23.496         23.496         104.46741      0              0              0            
       900   883.80021     -32352.804      146.11314     -32206.691      1341.4645      23.496         23.496         104.64164      0              0              0            
      1000   846.56933     -32347.603      139.958       -32207.645      1661.2673      23.496         23.496         105.15628      0              0              0            
      1100   873.87629     -32353.756      144.47248     -32209.283      1736.1563      23.496         23.496         105.53696      0              0              0            
      1200   881.00999     -32353.859      145.65185     -32208.207      1036.0693      23.496         23.496         106.24267      0              0              0            
      1300   850.9818      -32349.427      140.68748     -32208.74       1328.9246      23.496         23.496         106.5474       0              0              0            
      1400   873.84785     -32350.727      144.46778     -32206.259      1053.0865      23.496         23.496         106.52369      0              0              0            
      1500   863.08522     -32347.467      142.68846     -32204.778      1167.8692      23.496         23.496         106.86769      0              0              0            
      1600   849.19756     -32345.454      140.3925      -32205.061      1218.5043      23.496         23.496         107.84925      0              0              0            
      1700   841.28871     -32344.211      139.08498     -32205.127      501.1358       23.496         23.496         108.22645      0              0              0            
      1800   847.04395     -32344.284      140.03646     -32204.247      295.06474      23.496         23.496         107.86282      0              0              0            
      1900   857.75789     -32342.241      141.80773     -32200.433      1002.0864      23.496         23.496         107.22987      0              0              0            
      2000   879.12839     -32340.514      145.34078     -32195.173      1442.53        23.496         23.496         107.94316      0              0              0            
      2100   868.91763     -32338.672      143.6527      -32195.02       713.76883      23.496         23.496         108.61386      0              0              0            
      2200   921.58998     -32342.859      152.36069     -32190.498      1210.4692      23.496         23.496         108.03277      0              0              0            
      2300   923.46077     -32341.939      152.66998     -32189.269      2136.9089      23.496         23.496         107.89938      0              0              0            
      2400   898.00346     -32340.661      148.46128     -32192.199      1242.4561      23.496         23.496         108.5954       0              0              0            
      2500   904.35248     -32340.916      149.51092     -32191.405      1055.264       23.496         23.496         108.48713      0              0              0            
      2600   889.89122     -32337.512      147.12013     -32190.392      1025.1763      23.496         23.496         107.94774      0              0              0            
      2700   910.88589     -32337.977      150.59105     -32187.386      1105.0602      23.496         23.496         107.78589      0              0              0            
      2800   910.98439     -32334.302      150.60733     -32183.694      1119.3919      23.496         23.496         107.553        0              0              0            
      2900   905.09629     -32331.651      149.63389     -32182.018      1488.8836      23.496         23.496         107.89801      0              0              0            
      3000   898.80193     -32331.317      148.59328     -32182.724      851.76947      23.496         23.496         108.72876      0              0              0            
      3100   928.96015     -32336.757      153.57915     -32183.178      1597.4303      23.496         23.496         108.54193      0              0              0            
      3200   939.6321      -32337.482      155.34348     -32182.138      1639.5694      23.496         23.496         107.7391       0              0              0            
      3300   925.64649     -32335.437      153.03133     -32182.406      1802.716       23.496         23.496         107.35443      0              0              0            
      3400   923.05853     -32336.854      152.60348     -32184.25       938.71197      23.496         23.496         107.93924      0              0              0            
      3500   935.43792     -32338.851      154.65008     -32184.201      1978.9082      23.496         23.496         107.44301      0              0              0            
      3600   919.33672     -32333.105      151.98817     -32181.117      1647.0497      23.496         23.496         106.81183      0              0              0            
      3700   935.80494     -32334.889      154.71076     -32180.179      1266.6883      23.496         23.496         107.0809       0              0              0            
      3800   897.91341     -32331.871      148.44639     -32183.425      865.24878      23.496         23.496         107.54357      0              0              0            
      3900   909.788       -32336.814      150.40954     -32186.405      1260.1715      23.496         23.496         106.96731      0              0              0            
      4000   901.81891     -32335.853      149.09206     -32186.761      1983.2159      23.496         23.496         106.86237      0              0              0            
      4100   909.62597     -32337.541      150.38275     -32187.159      774.19221      23.496         23.496         107.3073       0              0              0            
      4200   915.77684     -32340.017      151.39964     -32188.617      860.48225      23.496         23.496         107.29632      0              0              0            
      4300   911.77783     -32342.323      150.73851     -32191.585      1433.246       23.496         23.496         106.51284      0              0              0            
      4400   907.29612     -32344.92       149.99757     -32194.923      1556.4438      23.496         23.496         106.35656      0              0              0            
      4500   883.17665     -32342.394      146.01005     -32196.384      1229.8932      23.496         23.496         106.98525      0              0              0            
      4600   909.08614     -32346.372      150.29351     -32196.079      1063.7795      23.496         23.496         106.99084      0              0              0            
      4700   881.79189     -32340.173      145.78112     -32194.392      1764.3078      23.496         23.496         106.75167      0              0              0            
      4800   910.78019     -32343.131      150.57357     -32192.557      1585.6442      23.496         23.496         106.77717      0              0              0            
      4900   896.19513     -32337.97       148.16232     -32189.808      1242.0255      23.496         23.496         107.31078      0              0              0            
      5000   920.83603     -32339.214      152.23604     -32186.978      1338.2337      23.496         23.496         107.11923      0              0              0            
      5100   921.83953     -32338.946      152.40195     -32186.544      1329.8706      23.496         23.496         106.70069      0              0              0            
      5200   888.49707     -32335.557      146.88965     -32188.668      2196.9568      23.496         23.496         106.24638      0              0              0            
      5300   911.55805     -32338.149      150.70217     -32187.446      1565.6797      23.496         23.496         106.35041      0              0              0            
      5400   936.94433     -32344.404      154.89913     -32189.505      509.56809      23.496         23.496         106.68323      0              0              0            
      5500   900.58516     -32340.595      148.88809     -32191.706      1910.5505      23.496         23.496         106.21413      0              0              0            
      5600   905.19243     -32340.608      149.64978     -32190.958      1158.982       23.496         23.496         106.07678      0              0              0            
      5700   910.05477     -32342.521      150.45364     -32192.067      2361.8074      23.496         23.496         106.20486      0              0              0            
      5800   872.85437     -32338.426      144.30354     -32194.123      355.25596      23.496         23.496         106.95759      0              0              0            
      5900   856.82515     -32337.764      141.65353     -32196.11       1620.7132      23.496         23.496         106.44254      0              0              0            
      6000   873.94916     -32341.706      144.48453     -32197.222      1055.4415      23.496         23.496         105.80922      0              0              0            
      6100   914.44023     -32347.134      151.17867     -32195.955      2014.9526      23.496         23.496         105.8569       0              0              0            
      6200   872.59983     -32338.029      144.26145     -32193.768      1091.4899      23.496         23.496         106.7718       0              0              0            
      6300   904.71497     -32342.264      149.57085     -32192.693      1393.8872      23.496         23.496         106.68749      0              0              0            
      6400   896.20326     -32340.54       148.16366     -32192.376      1958.3632      23.496         23.496         106.48253      0              0              0            
      6500   910.98896     -32342.353      150.60809     -32191.745      1804.0059      23.496         23.496         106.49664      0              0              0            
      6600   905.68857     -32339.294      149.73181     -32189.563      920.34797      23.496         23.496         106.99677      0              0              0            
      6700   897.09653     -32340.003      148.31134     -32191.691      2175.2331      23.496         23.496         106.50383      0              0              0            
      6800   898.0791      -32341.179      148.47378     -32192.705      1521.7647      23.496         23.496         106.2051       0              0              0            
      6900   934.63482     -32349.278      154.51731     -32194.76       1895.3296      23.496         23.496         106.00753      0              0              0            
      7000   896.2077      -32342.362      148.1644      -32194.198      1591.5476      23.496         23.496         106.38543      0              0              0            
      7100   911.53434     -32345.272      150.69825     -32194.573      1139.7658      23.496         23.496         106.50289      0              0              0            
      7200   931.34753     -32344.109      153.97384     -32190.135      1928.2438      23.496         23.496         106.30997      0              0              0            
      7300   896.40251     -32340.19       148.1966      -32191.993      1853.1759      23.496         23.496         106.00007      0              0              0            
      7400   920.5898      -32344.057      152.19533     -32191.862      1783.2198      23.496         23.496         105.95049      0              0              0            
      7500   920.74067     -32343.944      152.22028     -32191.723      1682.0851      23.496         23.496         105.7334       0              0              0            
      7600   892.64315     -32342.474      147.57509     -32194.899      1180.9196      23.496         23.496         106.2652       0              0              0            
      7700   879.01768     -32340.573      145.32248     -32195.25       1758.1903      23.496         23.496         106.60759      0              0              0            
      7800   905.29564     -32350.237      149.66685     -32200.57       915.33307      23.496         23.496         106.00978      0              0              0            
      7900   868.04032     -32343.174      143.50766     -32199.666      1770.7287      23.496         23.496         105.13905      0              0              0            
      8000   904.60549     -32352.631      149.55275     -32203.078      2197.9699      23.496         23.496         104.83894      0              0              0            
      8100   892.9653      -32345.324      147.62835     -32197.696      1363.8589      23.496         23.496         104.75125      0              0              0            
      8200   906.53106     -32347.933      149.87109     -32198.062      987.09074      23.496         23.496         104.75053      0              0              0            
      8300   901.03354     -32349.005      148.96222     -32200.042      1670.2496      23.496         23.496         104.77793      0              0              0            
      8400   909.85725     -32347.284      150.42099     -32196.863      1575.4594      23.496         23.496         104.29276      0              0              0            
      8500   898.27972     -32345.005      148.50695     -32196.498      1469.5634      23.496         23.496         104.25018      0              0              0            
      8600   896.85535     -32344.195      148.27147     -32195.924      1850.8748      23.496         23.496         104.97887      0              0              0            
      8700   883.87258     -32343.638      146.12511     -32197.513      928.2226       23.496         23.496         105.67107      0              0              0            
      8800   907.69838     -32347.025      150.06408     -32196.96       1613.1245      23.496         23.496         105.47205      0              0              0            
      8900   919.43885     -32352.071      152.00506     -32200.066      1455.9804      23.496         23.496         105.07653      0              0              0            
      9000   888.11824     -32348.672      146.82702     -32201.845      2008.5829      23.496         23.496         104.92645      0              0              0            
      9100   897.11589     -32349.759      148.31454     -32201.445      1414.2087      23.496         23.496         104.77096      0              0              0            
      9200   864.36094     -32346.651      142.89937     -32203.752      1199.8357      23.496         23.496         104.81005      0              0              0            
      9300   881.03233     -32348.793      145.65555     -32203.137      1603.8716      23.496         23.496         104.55988      0              0              0            
      9400   910.86168     -32353.556      150.58705     -32202.969      1722.3302      23.496         23.496         104.24523      0              0              0            
      9500   882.5494      -32348.176      145.90636     -32202.27       815.11931      23.496         23.496         104.76987      0              0              0            
      9600   902.35172     -32348.914      149.18015     -32199.734      1598.3129      23.496         23.496         105.00178      0              0              0            
      9700   903.49093     -32350.262      149.36849     -32200.894      425.64187      23.496         23.496         105.66931      0              0              0            
      9800   907.40258     -32350.554      150.01518     -32200.539      738.79474      23.496         23.496         105.39194      0              0              0            
      9900   886.00348     -32347.955      146.4774      -32201.478      2169.3446      23.496         23.496         104.68095      0              0              0            
     10000   902.45472     -32350.135      149.19718     -32200.938      1931.4072      23.496         23.496         105.16605      0              0              0            
     10100   895.51505     -32352.742      148.04988     -32204.692      1182.6359      23.496         23.496         105.61376      0              0              0            
     10200   921.23511     -32353.269      152.30202     -32200.967      241.198        23.496         23.496         105.43114      0              0              0            
     10300   894.2754      -32350.955      147.84494     -32203.11       2088.8058      23.496         23.496         104.4204       0              0              0            
     10400   901.08456     -32350.9        148.97066     -32201.929      1522.3768      23.496         23.496         104.10912      0              0              0            
     10500   901.14917     -32351.826      148.98134     -32202.845      1181.6918      23.496         23.496         104.93771      0              0              0            
     10600   906.88577     -32351.272      149.92973     -32201.343      985.88182      23.496         23.496         105.82223      0              0              0            
     10700   893.41471     -32348.006      147.70265     -32200.303      1517.4499      23.496         23.496         105.59723      0              0              0            
     10800   888.27342     -32347.764      146.85267     -32200.911      1263.9395      23.496         23.496         105.13635      0              0              0            
     10900   906.49493     -32350.663      149.86512     -32200.798      1498.4886      23.496         23.496         105.53306      0              0              0            
     11000   899.8424      -32350.698      148.7653      -32201.933      351.93557      23.496         23.496         106.22595      0              0              0            
     11100   882.5812      -32349.86       145.91161     -32203.948      1435.4541      23.496         23.496         105.69298      0              0              0            
     11200   893.45419     -32351.672      147.70918     -32203.963      2113.0322      23.496         23.496         104.93599      0              0              0            
     11300   877.15522     -32350.2        145.01457     -32205.185      1444.2094      23.496         23.496         105.23478      0              0              0            
     11400   872.68339     -32350.056      144.27527     -32205.781      1786.474       23.496         23.496         105.48475      0              0              0            
     11500   899.37158     -32352.903      148.68746     -32204.215      286.80058      23.496         23.496         105.31049      0              0              0            
     11600   891.25698     -32350.532      147.34592     -32203.186      2629.8796      23.496         23.496         104.09885      0              0              0            
     11700   868.18078     -32346.739      143.53088     -32203.208      1944.7459      23.496         23.496         103.8101       0              0              0            
     11800   872.17499     -32349.637      144.19122     -32205.446      2086.0683      23.496         23.496         104.1588       0              0              0            
     11900   891.05646     -32354.462      147.31277     -32207.15       1055.5712      23.496         23.496         104.63173      0              0              0            
     12000   873.78005     -32352.206      144.45657     -32207.749      1054.7828      23.496         23.496         104.50658      0              0              0            
     12100   891.19525     -32352.14       147.33572     -32204.804      1978.4185      23.496         23.496         103.84283      0              0              0            
     12200   926.14678     -32356.13       153.11404     -32203.016      1277.6592      23.496         23.496         104.08222      0              0              0            
     12300   899.74459     -32352.643      148.74913     -32203.894      639.78513      23.496         23.496         104.74524      0              0              0            
     12400   877.73156     -32348.001      145.10985     -32202.891      1070.9525      23.496         23.496         104.41651      0              0              0            
     12500   899.75272     -32350.968      148.75047     -32202.217      1312.5529      23.496         23.496         103.56366      0              0              0            
     12600   910.36605     -32349.434      150.50511     -32198.929      1774.275       23.496         23.496         103.76484      0              0              0            
     12700   883.64566     -32348.72       146.08759     -32202.633      1632.2482      23.496         23.496         103.97739      0              0              0            
     12800   909.8926      -32350.934      150.42683     -32200.507      2279.1383      23.496         23.496         103.3842       0              0              0            
     12900   891.23924     -32348.976      147.34299     -32201.633      1853.0975      23.496         23.496         103.56306      0              0              0            
     13000   885.77814     -32347.537      146.44014     -32201.097      2217.3428      23.496         23.496         103.95642      0              0              0            
     13100   893.20394     -32351.928      147.6678      -32204.26       1764.1218      23.496         23.496         104.40751      0              0              0            
     13200   898.42769     -32352.562      148.53141     -32204.031      1958.2992      23.496         23.496         104.63498      0              0              0            
     13300   886.28587     -32353.554      146.52408     -32207.03       2058.254       23.496         23.496         104.36922      0              0              0            
     13400   889.47673     -32353.614      147.05161     -32206.562      2948.1962      23.496         23.496         103.68621      0              0              0            
     13500   904.03732     -32355.046      149.45882     -32205.588      1718.0214      23.496         23.496         104.39981      0              0              0            
     13600   885.40513     -32350.473      146.37847     -32204.094      1332.9444      23.496         23.496         104.75254      0              0              0            
     13700   885.75544     -32354.126      146.43639     -32207.69       2023.7427      23.496         23.496         104.42105      0              0              0            
     13800   909.98491     -32359.485      150.4421      -32209.043      1654.2774      23.496         23.496         103.8873       0              0              0            
     13900   892.73839     -32355.769      147.59084     -32208.178      2744.6847      23.496         23.496         103.62706      0              0              0            
     14000   894.80242     -32356.138      147.93207     -32208.206      997.20393      23.496         23.496         103.47489      0              0              0            
     14100   912.62258     -32357.944      150.87817     -32207.066      1208.8561      23.496         23.496         103.39306      0              0              0            
     14200   884.51972     -32354.691      146.2321      -32208.459      2022.8852      23.496         23.496         102.96709      0              0              0            
     14300   881.90216     -32354.909      145.79935     -32209.11       1546.0475      23.496         23.496         103.06264      0              0              0            
     14400   913.97652     -32356.187      151.102       -32205.085      1199.2555      23.496         23.496         103.6198       0              0              0            
     14500   919.52204     -32358.986      152.01881     -32206.967      1166.4589      23.496         23.496         103.58734      0              0              0            
     14600   919.43923     -32361.417      152.00512     -32209.412      1529.3372      23.496         23.496         103.43874      0              0              0            
     14700   910.28695     -32358.006      150.49203     -32207.514      1183.3253      23.496         23.496         104.09202      0              0              0            
     14800   890.01751     -32354.442      147.14101     -32207.301      1504.6524      23.496         23.496         103.78713      0              0              0            
     14900   878.77471     -32354.348      145.28231     -32209.065      1004.8262      23.496         23.496         103.21525      0              0              0            
     15000   893.69438     -32358.349      147.74888     -32210.6        1380.8924      23.496         23.496         103.40804      0              0              0            
     15100   884.36983     -32358.703      146.20732     -32212.496      1804.088       23.496         23.496         103.89691      0              0              0            
     15200   877.25894     -32355.629      145.03172     -32210.597      1134.8912      23.496         23.496         104.03468      0              0              0            
     15300   893.03671     -32360.255      147.64016     -32212.615      1461.6701      23.496         23.496         104.2046       0              0              0            
     15400   881.98843     -32357.408      145.81361     -32211.594      375.62183      23.496         23.496         104.54841      0              0              0            
     15500   889.22607     -32359.272      147.01017     -32212.261      1388.3726      23.496         23.496         104.4045       0              0              0            
     15600   897.05508     -32359.805      148.30449     -32211.5        1369.4207      23.496         23.496         104.48459      0              0              0            
     15700   891.8008      -32361.048      147.43583     -32213.612      1390.6014      23.496         23.496         104.29652      0              0              0            
     15800   876.07257     -32356.827      144.83558     -32211.992      2975.229       23.496         23.496         103.85036      0              0              0            
     15900   893.65159     -32358.797      147.74181     -32211.056      496.28049      23.496         23.496         104.88133      0              0              0            
     16000   878.21106     -32357.023      145.18912     -32211.834      1531.9012      23.496         23.496         104.85108      0              0              0            
     16100   896.73717     -32360.651      148.25193     -32212.399      970.1978       23.496         23.496         104.49067      0              0              0            
     16200   886.86566     -32359.114      146.61994     -32212.494      1082.1969      23.496         23.496         104.49458      0              0              0            
     16300   879.39682     -32356.779      145.38516     -32211.394      1402.7526      23.496         23.496         104.30393      0              0              0            
     16400   876.5452      -32352.725      144.91372     -32207.811      1138.4349      23.496         23.496         104.21049      0              0              0            
     16500   921.05348     -32356.708      152.27199     -32204.436      1202.9806      23.496         23.496         104.01174      0              0              0            
     16600   912.38527     -32353.917      150.83893     -32203.078      2720.1551      23.496         23.496         103.39867      0              0              0            
     16700   901.97454     -32352.379      149.11779     -32203.261      2119.5299      23.496         23.496         103.61015      0              0              0            
     16800   908.26622     -32353.447      150.15795     -32203.289      1040.8236      23.496         23.496         104.17745      0              0              0            
     16900   902.4185      -32355.581      149.19119     -32206.389      970.99221      23.496         23.496         104.33492      0              0              0            
     17000   911.76394     -32357.968      150.73621     -32207.232      1010.1706      23.496         23.496         103.98165      0              0              0            
     17100   923.4572      -32355.586      152.66939     -32202.916      2828.6592      23.496         23.496         103.6633       0              0              0            
     17200   891.44481     -32349.525      147.37698     -32202.148      939.47352      23.496         23.496         104.81559      0              0              0            
     17300   911.09924     -32352.112      150.62632     -32201.486      952.16549      23.496         23.496         104.67052      0              0              0            
     17400   890.92487     -32350          147.29102     -32202.709      1418.7435      23.496         23.496         104.45176      0              0              0            
     17500   899.32258     -32351.359      148.67936     -32202.68       1107.1907      23.496         23.496         104.89377      0              0              0            
     17600   898.73118     -32354.76       148.58159     -32206.179      470.832        23.496         23.496         104.53163      0              0              0            
     17700   910.76654     -32353.597      150.57132     -32203.026      2503.8315      23.496         23.496         103.35384      0              0              0            
     17800   917.5149      -32358.139      151.68698     -32206.452      885.43959      23.496         23.496         104.09837      0              0              0            
     17900   880.99503     -32351.88       145.64938     -32206.23       242.78516      23.496         23.496         105.22298      0              0              0            
     18000   897.99093     -32354.7        148.45921     -32206.241      294.63236      23.496         23.496         105.30288      0              0              0            
     18100   897.05297     -32353.09       148.30414     -32204.786      773.5768       23.496         23.496         104.52265      0              0              0            
     18200   889.14816     -32354.266      146.99729     -32207.269      1717.2373      23.496         23.496         104.06567      0              0              0            
     18300   864.92881     -32353.686      142.99325     -32210.693      2735.5414      23.496         23.496         104.06142      0              0              0            
     18400   881.72211     -32355.302      145.76958     -32209.533      2630.1678      23.496         23.496         103.64849      0              0              0            
     18500   903.74833     -32358.082      149.41104     -32208.671      2269.2601      23.496         23.496         103.59534      0              0              0            
     18600   884.99032     -32355.254      146.3099      -32208.944      1301.5345      23.496         23.496         104.20651      0              0              0            
     18700   891.79284     -32354.488      147.43452     -32207.054      1846.2962      23.496         23.496         104.15721      0              0              0            
     18800   894.9677      -32353.001      147.95939     -32205.041      1751.7187      23.496         23.496         103.7624       0              0              0            
     18900   910.92334     -32357.06       150.59724     -32206.463      2751.0263      23.496         23.496         103.10273      0              0              0            
     19000   885.50895     -32351.841      146.39564     -32205.446      2174.3011      23.496         23.496         103.35872      0              0              0            
     19100   896.54792     -32355.458      148.22064     -32207.237      1527.5292      23.496         23.496         103.64013      0              0              0            
     19200   895.93052     -32354.41       148.11857     -32206.292      2489.6281      23.496         23.496         103.56432      0              0              0            
     19300   882.23447     -32352.513      145.85429     -32206.659      1884.2161      23.496         23.496         103.63662      0              0              0            
     19400   862.63549     -32350.504      142.61411     -32207.89       1761.5194      23.496         23.496         103.9134       0              0              0            
     19500   881.49743     -32355.143      145.73244     -32209.411      1427.0129      23.496         23.496         104.17299      0              0              0            
     19600   890.39878     -32355.802      147.20404     -32208.598      800.48188      23.496         23.496         104.13249      0              0              0            
     19700   895.07471     -32357.128      147.97709     -32209.151      2080.1289      23.496         23.496         104.02713      0              0              0            
     19800   894.83481     -32356.966      147.93743     -32209.029      1308.1156      23.496         23.496         104.87986      0              0              0            
     19900   862.11049     -32351.561      142.52732     -32209.034      1233.5331      23.496         23.496         105.20062      0              0              0            
     20000   888.20392     -32354.091      146.84118     -32207.25       1642.1599      23.496         23.496         104.83766      0              0              0            
     20100   867.02372     -32350.481      143.33959     -32207.141      1540.73        23.496         23.496         104.37931      0              0              0            
     20200   906.31936     -32356.314      149.83609     -32206.478      1872.749       23.496         23.496         103.92136      0              0              0            
     20300   891.07434     -32353.615      147.31573     -32206.299      1690.7004      23.496         23.496         103.76938      0              0              0            
     20400   887.97706     -32355.735      146.80368     -32208.931      1005.6075      23.496         23.496         104.15703      0              0              0            
     20500   912.15362     -32359.231      150.80064     -32208.431      1246.6097      23.496         23.496         104.05855      0              0              0            
     20600   893.31845     -32355.983      147.68673     -32208.296      1792.7308      23.496         23.496         103.63462      0              0              0            
     20700   906.86371     -32358.735      149.92609     -32208.809      2044.1177      23.496         23.496         103.49644      0              0              0            
     20800   879.64734     -32356.113      145.42658     -32210.687      1942.5632      23.496         23.496         103.32766      0              0              0            
     20900   901.51608     -32355.483      149.042       -32206.441      2960.6495      23.496         23.496         102.51488      0              0              0            
     21000   922.46368     -32356.28       152.50513     -32203.775      2860.7702      23.496         23.496         102.53636      0              0              0            
     21100   897.92466     -32353.142      148.44825     -32204.694      847.62976      23.496         23.496         103.39609      0              0              0            
     21200   878.56311     -32352.487      145.24733     -32207.239      1683.7695      23.496         23.496         102.87725      0              0              0            
     21300   924.55734     -32361.532      152.85126     -32208.681      2674.9699      23.496         23.496         102.30485      0              0              0            
     21400   902.02874     -32355.317      149.12675     -32206.19       2062.2209      23.496         23.496         102.98167      0              0              0            
     21500   904.26338     -32356.45       149.49619     -32206.954      1777.0441      23.496         23.496         103.64989      0              0              0            
     21600   901.66453     -32354.955      149.06654     -32205.889      2382.3741      23.496         23.496         103.32688      0              0              0            
     21700   925.89043     -32358.065      153.07166     -32204.993      2056.9527      23.496         23.496         103.21312      0              0              0            
     21800   917.85482     -32359.469      151.74318     -32207.726      2238.1814      23.496         23.496         103.12168      0              0              0            
     21900   902.81393     -32359.474      149.25656     -32210.217      407.96212      23.496         23.496         104.18202      0              0              0            
     22000   882.35668     -32357.726      145.87449     -32211.851      1366.2725      23.496         23.496         104.52419      0              0              0            
     22100   890.99017     -32358.948      147.30181     -32211.646      1920.0196      23.496         23.496         103.91911      0              0              0            
     22200   860.92658     -32351.319      142.33159     -32208.988      1289.8696      23.496         23.496         103.28156      0              0              0            
     22300   929.90596     -32360.145      153.73552     -32206.41       2609.958       23.496         23.496         103.4829       0              0              0            
     22400   924.18862     -32359.442      152.79031     -32206.652      1273.0814      23.496         23.496         103.90878      0              0              0            
     22500   886.87772     -32355.872      146.62193     -32209.25       1202.0961      23.496         23.496         103.81998      0              0              0            
     22600   873.25525     -32358.53       144.36981     -32214.16       1781.2865      23.496         23.496         103.55789      0              0              0            
     22700   874.37963     -32357.041      144.5557      -32212.486      1987.3804      23.496         23.496         103.14488      0              0              0            
     22800   896.97299     -32357.453      148.29092     -32209.162      1402.214       23.496         23.496         103.2823       0              0              0            
     22900   893.5383      -32357.214      147.72308     -32209.491      2364.341       23.496         23.496         103.24205      0              0              0            
     23000   893.43221     -32357.388      147.70554     -32209.682      230.64597      23.496         23.496         103.5862       0              0              0            
     23100   874.19004     -32353.066      144.52435     -32208.541      1897.4195      23.496         23.496         102.66188      0              0              0            
     23200   891.22137     -32354.026      147.34004     -32206.686      2651.4156      23.496         23.496         101.94737      0              0              0            
     23300   901.6555      -32354.279      149.06505     -32205.214      1078.9242      23.496         23.496         102.58309      0              0              0            
     23400   922.04933     -32356.146      152.43663     -32203.709      469.68715      23.496         23.496         102.78283      0              0              0            
     23500   909.02804     -32354.084      150.2839      -32203.8        1458.2749      23.496         23.496         102.57264      0              0              0            
     23600   924.88817     -32353.404      152.90596     -32200.498      2091.8018      23.496         23.496         102.72848      0              0              0            
     23700   908.86453     -32348.978      150.25687     -32198.721      872.75678      23.496         23.496         103.44944      0              0              0            
     23800   915.93676     -32349.133      151.42608     -32197.707      1167.4632      23.496         23.496         103.63743      0              0              0            
     23900   958.67499     -32356.274      158.49172     -32197.783      1064.4718      23.496         23.496         103.72855      0              0              0            
     24000   919.11316     -32352.911      151.95121     -32200.96       1200.7336      23.496         23.496         103.61387      0              0              0            
     24100   925.25646     -32350.911      152.96684     -32197.944      787.99119      23.496         23.496         104.28462      0              0              0            
     24200   917.32921     -32352.628      151.65628     -32200.971      1458.9446      23.496         23.496         104.36432      0              0              0            
     24300   903.85963     -32349.352      149.42944     -32199.922      1913.3024      23.496         23.496         104.02358      0              0              0            
     24400   922.44248     -32355.897      152.50163     -32203.396      1383.4476      23.496         23.496         104.16959      0              0              0            
     24500   902.53498     -32352.887      149.21045     -32203.676      1713.3433      23.496         23.496         104.96881      0              0              0            
     24600   880.10769     -32351.932      145.50268     -32206.429      1609.9744      23.496         23.496         104.91561      0              0              0            
     24700   914.70338     -32357.029      151.22217     -32205.807      1942.2894      23.496         23.496         103.87033      0              0              0            
     24800   897.71268     -32355.183      148.4132      -32206.77       1851.4899      23.496         23.496         104.48649      0              0              0            
     24900   873.94263     -32350.89       144.48345     -32206.407      1076.2345      23.496         23.496         104.94331      0              0              0            
     25000   900.65643     -32355.908      148.89988     -32207.008      1348.7753      23.496         23.496         103.7503       0              0              0            
     25100   886.96109     -32356.235      146.63571     -32209.599      2638.0649      23.496         23.496         103.28341      0              0              0            
     25200   874.25757     -32353.693      144.53552     -32209.157      2405.1235      23.496         23.496         103.97985      0              0              0            
     25300   879.3189      -32353.217      145.37228     -32207.845      943.98468      23.496         23.496         104.16975      0              0              0            
     25400   922.57379     -32358.367      152.52334     -32205.844      1837.013       23.496         23.496         103.15668      0              0              0            
     25500   902.36531     -32353.436      149.18239     -32204.254      3351.5007      23.496         23.496         102.89355      0              0              0            
     25600   873.48811     -32346.395      144.40831     -32201.987      710.06562      23.496         23.496         104.55816      0              0              0            
     25700   882.01966     -32348.936      145.81878     -32203.118      1256.166       23.496         23.496         104.40028      0              0              0            
     25800   935.59012     -32358.492      154.67524     -32203.817      1966.0987      23.496         23.496         103.52852      0              0              0            
     25900   953.64077     -32361.474      157.65944     -32203.814      2072.2961      23.496         23.496         103.2752       0              0              0            
     26000   920.81589     -32357.323      152.23271     -32205.09       1854.0089      23.496         23.496         103.17121      0              0              0            
     26100   892.79462     -32354.238      147.60013     -32206.638      2128.1812      23.496         23.496         103.40511      0              0              0            
     26200   913.64136     -32357.963      151.04659     -32206.917      2124.2938      23.496         23.496         103.14356      0              0              0            
     26300   925.41326     -32359.474      152.99277     -32206.481      1983.6685      23.496         23.496         103.08583      0              0              0            
     26400   888.28357     -32354.633      146.85435     -32207.778      772.23908      23.496         23.496         103.68976      0              0              0            
     26500   879.01402     -32352.861      145.32187     -32207.54       478.33888      23.496         23.496         104.07801      0              0              0            
     26600   908.84843     -32356.57       150.25421     -32206.316      1035.1459      23.496         23.496         103.21196      0              0              0            
     26700   878.28144     -32353.467      145.20076     -32208.266      1998.2381      23.496         23.496         102.70981      0              0              0            
     26800   905.61503     -32356.214      149.71965     -32206.495      945.8926       23.496         23.496         103.21605      0              0              0            
     26900   913.7748      -32356.195      151.06865     -32205.126      2208.737       23.496         23.496         103.41471      0              0              0            
     27000   910.48251     -32356.669      150.52436     -32206.145      707.24592      23.496         23.496         103.90919      0              0              0            
     27100   870.64031     -32352.432      143.9375      -32208.495      1352.8899      23.496         23.496         103.90417      0              0              0            
     27200   887.2887      -32353.925      146.68987     -32207.236      2040.0878      23.496         23.496         103.91931      0              0              0            
     27300   888.84409     -32354.146      146.94702     -32207.199      924.04911      23.496         23.496         104.35325      0              0              0            
     27400   852.5195      -32349.783      140.9417      -32208.842      708.97969      23.496         23.496         104.26628      0              0              0            
     27500   895.06916     -32356.572      147.97617     -32208.596      2223.4785      23.496         23.496         103.58976      0              0              0            
     27600   907.56256     -32358.456      150.04162     -32208.414      2474.1857      23.496         23.496         103.94957      0              0              0            
     27700   876.75441     -32353.578      144.94831     -32208.63       250.78334      23.496         23.496         104.71488      0              0              0            
     27800   908.54516     -32357.632      150.20407     -32207.428      1346.9278      23.496         23.496         104.15248      0              0              0            
     27900   925.6916      -32357.855      153.03878     -32204.816      1295.1376      23.496         23.496         103.40315      0              0              0            
     28000   932.55654     -32359.146      154.17372     -32204.972      2021.913       23.496         23.496         103.20587      0              0              0            
     28100   917.01543     -32355.892      151.60441     -32204.288      1769.7317      23.496         23.496         103.49192      0              0              0            
     28200   912.19728     -32352.904      150.80785     -32202.096      1852.6748      23.496         23.496         103.74906      0              0              0            
     28300   958.00314     -32358.269      158.38065     -32199.888      1750.0435      23.496         23.496         103.08386      0              0              0            
     28400   925.4227      -32356.455      152.99433     -32203.461      1699.4054      23.496         23.496         102.49281      0              0              0            
     28500   889.20532     -32352.7        147.00674     -32205.693      2514.68        23.496         23.496         102.7014       0              0              0            
     28600   905.54968     -32356.717      149.70885     -32207.008      1542.1071      23.496         23.496         102.74976      0              0              0            
     28700   888.86041     -32353.823      146.94971     -32206.874      1694.6521      23.496         23.496         102.2784       0              0              0            
     28800   923.31845     -32359.052      152.64645     -32206.406      1683.2526      23.496         23.496         102.19381      0              0              0            
     28900   938.53568     -32363.796      155.16221     -32208.634      2166.5303      23.496         23.496         102.50093      0              0              0            
     29000   894.04153     -32356.522      147.80628     -32208.716      1337.6432      23.496         23.496         103.36978      0              0              0            
     29100   928.12164     -32356.161      153.44053     -32202.72       1589.4266      23.496         23.496         103.41626      0              0              0            
     29200   926.0928      -32356.682      153.10511     -32203.577      1330.583       23.496         23.496         103.44092      0              0              0            
     29300   916.10793     -32356.108      151.45438     -32204.654      1920.3447      23.496         23.496         103.84444      0              0              0            
     29400   889.30151     -32354.038      147.02264     -32207.016      1254.0668      23.496         23.496         104.36678      0              0              0            
     29500   905.68493     -32356.52       149.73121     -32206.789      1919.1943      23.496         23.496         103.74037      0              0              0            
     29600   905.84642     -32356.588      149.75791     -32206.83       1401.2963      23.496         23.496         104.30285      0              0              0            
     29700   898.67208     -32353.543      148.57182     -32204.971      19.720538      23.496         23.496         105.18261      0              0              0            
     29800   888.2964      -32348.978      146.85647     -32202.121      1308.563       23.496         23.496         104.79777      0              0              0            
     29900   887.39915     -32353.189      146.70813     -32206.48       1016.6358      23.496         23.496         104.98978      0              0              0            
     30000   883.73297     -32352.526      146.10203     -32206.424      335.62454      23.496         23.496         105.34576      0              0              0            
     30100   920.22806     -32357.576      152.13553     -32205.44       1882.4875      23.496         23.496         104.2574       0              0              0            
     30200   908.46664     -32356.85       150.19109     -32206.659      1577.4674      23.496         23.496         104.03786      0              0              0            
     30300   923.68889     -32360.462      152.70769     -32207.754      987.1364       23.496         23.496         104.34208      0              0              0            
     30400   895.67784     -32357.468      148.0768      -32209.391      2617.6504      23.496         23.496         103.62766      0              0              0            
     30500   895.91305     -32359.27       148.11568     -32211.154      1168.4263      23.496         23.496         103.36059      0              0              0            
     30600   900.75465     -32360.29       148.91611     -32211.374      1918.8479      23.496         23.496         102.86826      0              0              0            
     30700   915.89025     -32362.809      151.41839     -32211.391      1826.6659      23.496         23.496         102.51576      0              0              0            
     30800   917.14641     -32362.585      151.62606     -32210.959      2557.9282      23.496         23.496         101.99961      0              0              0            
     30900   917.44235     -32360.607      151.67499     -32208.932      2541.0819      23.496         23.496         102.18677      0              0              0            
     31000   913.86396     -32357.488      151.08339     -32206.405      1704.6631      23.496         23.496         102.5946       0              0              0            
     31100   905.86072     -32358.211      149.76027     -32208.45       1498.4648      23.496         23.496         102.48921      0              0              0            
     31200   925.702       -32359.979      153.0405      -32206.939      1810.8734      23.496         23.496         102.67595      0              0              0            
     31300   906.87574     -32357.564      149.92808     -32207.636      2920.9502      23.496         23.496         102.89771      0              0              0            
     31400   912.90889     -32358.732      150.9255      -32207.806      945.20981      23.496         23.496         103.37985      0              0              0            
     31500   889.81057     -32353.924      147.1068      -32206.817      1735.8145      23.496         23.496         103.20263      0              0              0            
     31600   908.42607     -32358.33       150.18438     -32208.146      1292.3736      23.496         23.496         103.3023       0              0              0            
     31700   863.34933     -32351.346      142.73213     -32208.614      1408.1611      23.496         23.496         103.67675      0              0              0            
     31800   908.45982     -32357.961      150.18996     -32207.771      758.36067      23.496         23.496         103.88493      0              0              0            
     31900   910.36464     -32358.375      150.50487     -32207.87       2249.3662      23.496         23.496         103.17605      0              0              0            
     32000   914.04289     -32359.478      151.11298     -32208.365      1986.6754      23.496         23.496         103.30464      0              0              0            
     32100   898.88379     -32351.879      148.60682     -32203.272      1876.5502      23.496         23.496         103.67282      0              0              0            
     32200   922.68799     -32356.257      152.54222     -32203.715      1789.793       23.496         23.496         103.75617      0              0              0            
     32300   904.06415     -32352.572      149.46325     -32203.108      1845.5784      23.496         23.496         103.63815      0              0              0            
     32400   910.32137     -32358.992      150.49772     -32208.494      1440.7368      23.496         23.496         103.36942      0              0              0            
     32500   903.3609      -32354.471      149.34699     -32205.124      1980.5801      23.496         23.496         102.91041      0              0              0            
     32600   890.93094     -32351.683      147.29202     -32204.391      1878.727       23.496         23.496         103.39973      0              0              0            
     32700   903.1171      -32353.821      149.30668     -32204.514      611.92865      23.496         23.496         103.76206      0              0              0            
     32800   929.57992     -32357.271      153.68162     -32203.589      2441.9436      23.496         23.496         102.46396      0              0              0            
     32900   901.57095     -32356.29       149.05107     -32207.239      3186.6233      23.496         23.496         102.334        0              0              0            
     33000   907.18072     -32357.771      149.9785      -32207.792      1416.4765      23.496         23.496         102.84972      0              0              0            
     33100   897.8893      -32359.663      148.4424      -32211.221      1898.5319      23.496         23.496         101.99103      0              0              0            
     33200   890.55723     -32363.302      147.23024     -32216.072      2314.4941      23.496         23.496         101.33236      0              0              0            
     33300   875.08362     -32364.751      144.67208     -32220.079      1979.6391      23.496         23.496         101.7912       0              0              0            
     33400   885.93359     -32365.665      146.46584     -32219.2        1796.664       23.496         23.496         101.91002      0              0              0            
     33500   871.04323     -32365.094      144.00411     -32221.09       2369.2266      23.496         23.496         101.58298      0              0              0            
     33600   914.41396     -32369.006      151.17432     -32217.832      762.43875      23.496         23.496         102.28069      0              0              0            
     33700   847.43926     -32359.367      140.10182     -32219.265      2214.2477      23.496         23.496         102.16286      0              0              0            
     33800   892.1178      -32365.525      147.48824     -32218.036      1403.8019      23.496         23.496         102.0004       0              0              0            
     33900   881.14583     -32366.256      145.67431     -32220.582      1617.2142      23.496         23.496         102.34566      0              0              0            
     34000   860.72731     -32357.993      142.29864     -32215.695      552.85523      23.496         23.496         103.11115      0              0              0            
     34100   911.8949      -32365.195      150.75786     -32214.437      2144.7072      23.496         23.496         102.53403      0              0              0            
     34200   891.19862     -32362.783      147.33628     -32215.447      2047.0949      23.496         23.496         102.35763      0              0              0            
     34300   869.82202     -32360.723      143.80222     -32216.921      484.51971      23.496         23.496         102.68212      0              0              0            
     34400   895.48929     -32364.432      148.04563     -32216.386      2156.3914      23.496         23.496         101.95848      0              0              0            
     34500   867.70417     -32364.894      143.45209     -32221.442      1580.0536      23.496         23.496         102.31013      0              0              0            
     34600   893.93327     -32367.08       147.78838     -32219.292      1584.3875      23.496         23.496         102.41116      0              0              0            
     34700   879.48691     -32363.383      145.40005     -32217.983      2301.3645      23.496         23.496         101.71655      0              0              0            
     34800   913.71969     -32369.511      151.05954     -32218.451      2710.5818      23.496         23.496         101.54652      0              0              0            
     34900   849.34153     -32358.511      140.41631     -32218.095      1289.4578      23.496         23.496         102.48565      0              0              0            
     35000   871.33754     -32363.016      144.05277     -32218.963      1060.8233      23.496         23.496         102.48059      0              0              0            
     35100   872.00587     -32361.005      144.16326     -32216.841      1477.4947      23.496         23.496         102.36215      0              0              0            
     35200   866.57451     -32358.002      143.26533     -32214.737      1353.5558      23.496         23.496         102.70405      0              0              0            
     35300   899.12005     -32361.696      148.64588     -32213.051      1623.3266      23.496         23.496         102.77229      0              0              0            
     35400   909.81209     -32362.658      150.41352     -32212.244      2266.4837      23.496         23.496         102.36038      0              0              0            
     35500   890.6244      -32360.462      147.24134     -32213.221      1384.7751      23.496         23.496         103.0033       0              0              0            
     35600   882.1044      -32359.922      145.83279     -32214.089      959.30371      23.496         23.496         103.41067      0              0              0            
     35700   908.88994     -32359.679      150.26107     -32209.418      1503.3858      23.496         23.496         103.26819      0              0              0            
     35800   909.12499     -32357.776      150.29993     -32207.476      1267.4837      23.496         23.496         103.51402      0              0              0            
     35900   888.25313     -32353.239      146.84932     -32206.389      1328.6498      23.496         23.496         103.68571      0              0              0            
     36000   895.2097      -32354.261      147.9994      -32206.261      1902.5678      23.496         23.496         103.81344      0              0              0            
     36100   913.11851     -32357.014      150.96015     -32206.054      1793.759       23.496         23.496         104.05901      0              0              0            
     36200   896.41587     -32352.457      148.19881     -32204.258      1912.1187      23.496         23.496         104.10093      0              0              0            
     36300   922.88581     -32354.227      152.57492     -32201.652      2245.936       23.496         23.496         104.06515      0              0              0            
     36400   900.57557     -32349.571      148.88651     -32200.685      1816.203       23.496         23.496         104.32203      0              0              0            
     36500   923.61261     -32350.944      152.69508     -32198.248      2648.92        23.496         23.496         103.85739      0              0              0            
     36600   925.75391     -32350.809      153.04909     -32197.76       2171.5279      23.496         23.496         104.14132      0              0              0            
     36700   927.66998     -32351.214      153.36586     -32197.848      654.63759      23.496         23.496         104.65121      0              0              0            
     36800   911.23098     -32347.706      150.6481      -32197.058      2407.6564      23.496         23.496         104.52612      0              0              0            
     36900   920.31979     -32346.139      152.1507      -32193.988      1295.6911      23.496         23.496         104.72631      0              0              0            
     37000   928.92455     -32343.753      153.57327     -32190.18       1154.9491      23.496         23.496         105.20019      0              0              0            
     37100   913.74997     -32342.737      151.06455     -32191.672      1962.5376      23.496         23.496         104.83222      0              0              0            
     37200   946.9064      -32350.314      156.54609     -32193.768      2464.8545      23.496         23.496         104.09965      0              0              0            
     37300   945.51144     -32350.599      156.31547     -32194.284      1541.8917      23.496         23.496         104.51838      0              0              0            
     37400   914.37302     -32348.059      151.16755     -32196.892      1741.6618      23.496         23.496         104.8639       0              0              0            
     37500   906.74774     -32346.974      149.90691     -32197.068      1869.5078      23.496         23.496         104.47563      0              0              0            
     37600   887.92265     -32347.124      146.79468     -32200.329      1474.8146      23.496         23.496         104.57995      0              0              0            
     37700   896.04804     -32350.342      148.138       -32202.204      1432.7342      23.496         23.496         104.45757      0              0              0            
     37800   917.26705     -32352.658      151.64601     -32201.012      2079.7922      23.496         23.496         103.136        0              0              0            
     37900   907.3917      -32351.668      150.01338     -32201.654      1398.3008      23.496         23.496         103.46448      0              0              0            
     38000   899.48504     -32349.919      148.70622     -32201.213      1650.9412      23.496         23.496         104.31404      0              0              0            
     38100   912.35956     -32353.971      150.83468     -32203.137      1131.8236      23.496         23.496         104.56854      0              0              0            
     38200   911.39445     -32352.783      150.67513     -32202.108      1486.9055      23.496         23.496         104.0454       0              0              0            
     38300   897.11739     -32351.273      148.31479     -32202.958      1410.9979      23.496         23.496         104.13866      0              0              0            
     38400   900.45843     -32351.401      148.86714     -32202.533      1826.8505      23.496         23.496         104.57914      0              0              0            
     38500   918.00972     -32351.273      151.76879     -32199.504      1685.9452      23.496         23.496         104.28273      0              0              0            
     38600   898.58793     -32349.695      148.5579      -32201.137      2517.1761      23.496         23.496         103.9716       0              0              0            
     38700   894.27242     -32347.083      147.84445     -32199.239      1480.6082      23.496         23.496         104.11038      0              0              0            
     38800   912.46186     -32351.156      150.85159     -32200.305      1058.6246      23.496         23.496         104.26734      0              0              0            
     38900   922.81546     -32350.153      152.56329     -32197.59       2332.8019      23.496         23.496         103.88527      0              0              0            
     39000   927.56786     -32351.521      153.34897     -32198.172      2228.4881      23.496         23.496         103.83749      0              0              0            
     39100   928.47483     -32351.253      153.49892     -32197.754      2181.0264      23.496         23.496         103.99532      0              0              0            
     39200   912.20964     -32349.655      150.8099      -32198.845      1989.6689      23.496         23.496         103.67206      0              0              0            
     39300   920.86201     -32347.435      152.24034     -32195.194      2037.6302      23.496         23.496         103.87871      0              0              0            
     39400   926.29072     -32348.47       153.13783     -32195.332      1681.9697      23.496         23.496         104.16353      0              0              0            
     39500   952.67424     -32348.862      157.49965     -32191.363      1695.571       23.496         23.496         103.81367      0              0              0            
     39600   944.45758     -32348.274      156.14125     -32192.133      1870.0828      23.496         23.496         103.48357      0              0              0            
     39700   936.33186     -32349.929      154.79787     -32195.132      1767.6115      23.496         23.496         103.47866      0              0              0            
     39800   948.26661     -32353.911      156.77097     -32197.14       2231.9126      23.496         23.496         103.41894      0              0              0            
     39900   916.07091     -32347.025      151.44826     -32195.577      1724.7707      23.496         23.496         103.77715      0              0              0            
     40000   909.94982     -32344.747      150.43629     -32194.311      1570.6314      23.496         23.496         104.05473      0              0              0            
     40100   937.78138     -32349.515      155.03751     -32194.477      1440.0637      23.496         23.496         103.8549       0              0              0            
     40200   948.7162      -32351.889      156.8453      -32195.043      2073.627       23.496         23.496         102.85865      0              0              0            
     40300   944.6574      -32353.171      156.17428     -32196.997      1627.6469      23.496         23.496         102.95093      0              0              0            
     40400   932.44879     -32352.429      154.15591     -32198.273      2432.2255      23.496         23.496         103.14584      0              0              0            
     40500   886.94041     -32350.015      146.63229     -32203.383      1014.8452      23.496         23.496         103.51947      0              0              0            
     40600   907.23237     -32353.729      149.98704     -32203.741      889.66452      23.496         23.496         103.57256      0              0              0            
     40700   904.29561     -32352.179      149.50152     -32202.677      1908.1305      23.496         23.496         103.31575      0              0              0            
     40800   916.33855     -32354.446      151.4925      -32202.954      1853.2346      23.496         23.496         102.91476      0              0              0            
     40900   922.05557     -32355.213      152.43766     -32202.775      1894.7675      23.496         23.496         102.74984      0              0              0            
     41000   922.88906     -32355.9        152.57546     -32203.325      2453.2719      23.496         23.496         103.2088       0              0              0            
     41100   925.88845     -32352.754      153.07133     -32199.683      1027.2485      23.496         23.496         103.88324      0              0              0            
     41200   894.32587     -32349.755      147.85328     -32201.901      1611.4328      23.496         23.496         104.1658       0              0              0            
     41300   923.61425     -32355.815      152.69535     -32203.12       654.64332      23.496         23.496         104.69571      0              0              0            
     41400   907.14285     -32351.508      149.97224     -32201.535      2323.6673      23.496         23.496         104.38456      0              0              0            
     41500   925.52169     -32350.347      153.01069     -32197.337      1683.8143      23.496         23.496         104.10044      0              0              0            
     41600   900.21195     -32345.262      148.82639     -32196.436      1590.2474      23.496         23.496         104.61204      0              0              0            
     41700   934.12957     -32351.004      154.43378     -32196.57       2072.9296      23.496         23.496         104.52325      0              0              0            
     41800   909.49784     -32346.704      150.36157     -32196.343      1698.9074      23.496         23.496         104.50694      0              0              0            
     41900   919.47434     -32350.175      152.01092     -32198.164      2558.0901      23.496         23.496         103.88542      0              0              0            
     42000   928.51453     -32353.689      153.50548     -32200.183      1921.1813      23.496         23.496         103.34407      0              0              0            
     42100   927.77681     -32353.538      153.38352     -32200.154      2315.1593      23.496         23.496         103.64132      0              0              0            
[...]
   1439100   896.84584     -32400.663      148.26989     -32252.393      1844.8355      23.496         23.496         99.946835      0              0              0            
   1439200   923.62231     -32403.677      152.69668     -32250.98       3052.2287      23.496         23.496         99.278281      0              0              0            
   1439300   904.51799     -32398.857      149.53828     -32249.319      2915.3711      23.496         23.496         99.518404      0              0              0            
   1439400   872.80364     -32392.984      144.29515     -32248.689      1875.2073      23.496         23.496         99.981278      0              0              0            
   1439500   885.55376     -32396.087      146.40305     -32249.684      1664.6506      23.496         23.496         100.22283      0              0              0            
   1439600   885.16862     -32400.406      146.33937     -32254.066      3215.3693      23.496         23.496         99.539326      0              0              0            
   1439700   905.03794     -32400.451      149.62424     -32250.827      4157.2053      23.496         23.496         99.213489      0              0              0            
   1439800   902.13337     -32396.536      149.14405     -32247.392      2486.0335      23.496         23.496         99.834113      0              0              0            
   1439900   913.59885     -32396.869      151.03957     -32245.829      2478.2997      23.496         23.496         100.15291      0              0              0            
   1440000   899.42269     -32392.225      148.69591     -32243.529      3133.3427      23.496         23.496         99.487733      0              0              0            
   1440100   898.52859     -32394.12       148.54809     -32245.572      2714.3359      23.496         23.496         99.594013      0              0              0            
   1440200   910.99298     -32396.596      150.60875     -32245.987      2066.8132      23.496         23.496         100.03116      0              0              0            
   1440300   926.19299     -32398.935      153.12167     -32245.813      3928.458       23.496         23.496         98.846246      0              0              0            
   1440400   884.3116      -32393.549      146.19769     -32247.352      3021.0232      23.496         23.496         99.134978      0              0              0            
   1440500   892.0898      -32393.116      147.48361     -32245.632      1879.3711      23.496         23.496         100.43724      0              0              0            
   1440600   900.7559      -32392.41       148.91632     -32243.494      2550.5705      23.496         23.496         99.905218      0              0              0            
   1440700   933.6552      -32395.689      154.35536     -32241.333      3357.738       23.496         23.496         99.503488      0              0              0            
   1440800   910.17416     -32390.844      150.47338     -32240.37       2298.9765      23.496         23.496         99.997972      0              0              0            
   1440900   911.87299     -32392.684      150.75424     -32241.929      2211.6295      23.496         23.496         100.21762      0              0              0            
   1441000   929.23795     -32396.862      153.62508     -32243.237      2811.865       23.496         23.496         100.16687      0              0              0            
   1441100   903.07344     -32393.134      149.29946     -32243.835      2413.7191      23.496         23.496         100.08299      0              0              0            
   1441200   890.75149     -32389.552      147.26235     -32242.29       1920.9412      23.496         23.496         100.32889      0              0              0            
   1441300   925.08243     -32395.245      152.93807     -32242.307      2361.0147      23.496         23.496         100.19292      0              0              0            
   1441400   900.53365     -32390.006      148.87958     -32241.126      2380.0835      23.496         23.496         100.17175      0              0              0            
   1441500   900.73186     -32390.064      148.91235     -32241.151      3806.2614      23.496         23.496         100.02302      0              0              0            
   1441600   886.70877     -32391.311      146.594       -32244.717      1559.5772      23.496         23.496         100.60747      0              0              0            
   1441700   924.43629     -32400.47       152.83125     -32247.639      2683.1014      23.496         23.496         99.717009      0              0              0            
   1441800   906.00976     -32397.228      149.78491     -32247.443      3779.0904      23.496         23.496         99.250404      0              0              0            
   1441900   915.03048     -32397.121      151.27625     -32245.844      2693.1261      23.496         23.496         99.915391      0              0              0            
   1442000   926.62604     -32395.665      153.19327     -32242.472      2703.8841      23.496         23.496         99.841107      0              0              0            
   1442100   912.70332     -32393.915      150.89151     -32243.023      3426.789       23.496         23.496         99.416779      0              0              0            
   1442200   916.50529     -32393.266      151.52007     -32241.746      2218.9254      23.496         23.496         99.84079       0              0              0            
   1442300   904.73152     -32392.187      149.57358     -32242.614      1473.6184      23.496         23.496         100.5308       0              0              0            
   1442400   931.59816     -32395.579      154.01528     -32241.564      3438.7647      23.496         23.496         100.1063       0              0              0            
   1442500   910.42146     -32391.708      150.51427     -32241.194      3237.8697      23.496         23.496         99.67924       0              0              0            
   1442600   894.5543      -32390.335      147.89105     -32242.444      1794.2731      23.496         23.496         100.03932      0              0              0            
   1442700   913.80972     -32392.714      151.07443     -32241.639      2668.7545      23.496         23.496         100.08612      0              0              0            
   1442800   902.3997      -32391.225      149.18808     -32242.037      3603.1772      23.496         23.496         99.862437      0              0              0            
   1442900   905.20921     -32392.076      149.65256     -32242.423      2735.9507      23.496         23.496         100.11842      0              0              0            
   1443000   901.74156     -32391.507      149.07927     -32242.427      1660.4566      23.496         23.496         100.8725       0              0              0            
   1443100   905.67553     -32391.447      149.72965     -32241.717      2234.8868      23.496         23.496         101.33316      0              0              0            
   1443200   885.50047     -32389.035      146.39424     -32242.641      2468.0892      23.496         23.496         101.30985      0              0              0            
   1443300   880.03511     -32387.338      145.49068     -32241.847      2585.4264      23.496         23.496         101.21232      0              0              0            
   1443400   899.88963     -32391.643      148.77311     -32242.869      1885.3875      23.496         23.496         101.22861      0              0              0            
   1443500   881.92822     -32390.647      145.80366     -32244.844      2240.1642      23.496         23.496         101.10486      0              0              0            
   1443600   873.2034      -32388.431      144.36124     -32244.07       2626.3434      23.496         23.496         101.12346      0              0              0            
   1443700   891.09454     -32392.425      147.31907     -32245.106      2407.1387      23.496         23.496         101.10952      0              0              0            
   1443800   882.09613     -32389.704      145.83142     -32243.872      2359.9926      23.496         23.496         100.8469       0              0              0            
   1443900   908.23679     -32394.225      150.15309     -32244.072      1633.773       23.496         23.496         100.62586      0              0              0            
   1444000   889.42196     -32391.102      147.04255     -32244.059      2721.5013      23.496         23.496         100.64933      0              0              0            
   1444100   887.6636      -32392.683      146.75185     -32245.931      2565.2495      23.496         23.496         100.73718      0              0              0            
   1444200   872.36944     -32387.596      144.22337     -32243.372      2697.7958      23.496         23.496         100.75509      0              0              0            
   1444300   892.08633     -32388.813      147.48303     -32241.33       2827.4763      23.496         23.496         100.13119      0              0              0            
   1444400   904.71448     -32391.058      149.57077     -32241.487      3312.9917      23.496         23.496         99.780926      0              0              0            
   1444500   866.43172     -32387.653      143.24172     -32244.411      2172.6134      23.496         23.496         100.07428      0              0              0            
   1444600   905.39447     -32395.155      149.68319     -32245.471      1610.9768      23.496         23.496         100.25057      0              0              0            
   1444700   881.12644     -32390.814      145.67111     -32245.142      2863.9056      23.496         23.496         100.34892      0              0              0            
   1444800   873.95895     -32389.928      144.48615     -32245.442      2793.6593      23.496         23.496         100.48435      0              0              0            
   1444900   912.05525     -32400.043      150.78437     -32249.259      2173.1147      23.496         23.496         100.59126      0              0              0            
   1445000   896.85957     -32397.461      148.27216     -32249.189      2461.2225      23.496         23.496         100.39862      0              0              0            
   1445100   893.87716     -32395.319      147.7791      -32247.54       2723.9087      23.496         23.496         100.46604      0              0              0            
   1445200   910.3032      -32399.769      150.49472     -32249.275      2160.2286      23.496         23.496         100.55514      0              0              0            
   1445300   872.13043     -32394.264      144.18385     -32250.08       2982.3108      23.496         23.496         100.13487      0              0              0            
   1445400   880.76633     -32395.309      145.61157     -32249.697      1852.3716      23.496         23.496         100.36355      0              0              0            
   1445500   886.93559     -32393.637      146.6315      -32247.005      3123.6383      23.496         23.496         99.960125      0              0              0            
   1445600   896.72645     -32394.187      148.25016     -32245.937      3360.3146      23.496         23.496         100.06299      0              0              0            
   1445700   893.64232     -32395.611      147.74028     -32247.87       2457.3233      23.496         23.496         100.512        0              0              0            
   1445800   881.908       -32391.18       145.80032     -32245.379      3814.4723      23.496         23.496         99.836385      0              0              0            
   1445900   892.88308     -32391.94       147.61476     -32244.325      2730.9991      23.496         23.496         100.02926      0              0              0            
   1446000   903.19286     -32391.15       149.31921     -32241.83       2529.6794      23.496         23.496         100.0187       0              0              0            
   1446100   903.59921     -32391.898      149.38639     -32242.511      2603.5432      23.496         23.496         100.04853      0              0              0            
   1446200   909.96618     -32392.596      150.439       -32242.157      2957.2825      23.496         23.496         100.15425      0              0              0            
   1446300   923.21613     -32394.183      152.62953     -32241.554      3462.3498      23.496         23.496         100.06236      0              0              0            
   1446400   905.57219     -32392.583      149.71257     -32242.871      3097.917       23.496         23.496         100.02209      0              0              0            
   1446500   911.73701     -32391.191      150.73176     -32240.459      2651.5463      23.496         23.496         100.26674      0              0              0            
   1446600   912.25628     -32392.383      150.81761     -32241.566      2350.2251      23.496         23.496         100.33104      0              0              0            
   1446700   931.22762     -32396.3        153.95402     -32242.346      2899.1184      23.496         23.496         99.899956      0              0              0            
   1446800   891.52467     -32396.412      147.39018     -32249.022      3130.3815      23.496         23.496         99.569452      0              0              0            
   1446900   889.0316      -32395.507      146.97802     -32248.529      2748.4571      23.496         23.496         100.29108      0              0              0            
   1447000   893.2447      -32396.029      147.67454     -32248.355      2330.9973      23.496         23.496         100.21774      0              0              0            
   1447100   882.61732     -32390.724      145.91758     -32244.807      3321.5141      23.496         23.496         99.599629      0              0              0            
   1447200   886.68605     -32396.022      146.59024     -32249.431      1578.8846      23.496         23.496         100.08168      0              0              0            
   1447300   879.08579     -32396.69       145.33374     -32251.356      1565.9511      23.496         23.496         100.34794      0              0              0            
   1447400   896.39979     -32400.039      148.19615     -32251.843      2220.1153      23.496         23.496         99.951895      0              0              0            
   1447500   905.17002     -32402.362      149.64608     -32252.716      2205.3175      23.496         23.496         100.30843      0              0              0            
   1447600   839.95984     -32396.162      138.86529     -32257.297      1045.0285      23.496         23.496         100.99208      0              0              0            
   1447700   837.34474     -32392.648      138.43295     -32254.215      2388.9224      23.496         23.496         100.46447      0              0              0            
   1447800   886.31715     -32397.473      146.52925     -32250.944      2124.8448      23.496         23.496         100.31175      0              0              0            
   1447900   905.66837     -32399.636      149.72847     -32249.907      2320.417       23.496         23.496         100.11645      0              0              0            
   1448000   925.06146     -32402.519      152.93461     -32249.584      2714.6914      23.496         23.496         100.24098      0              0              0            
   1448100   880.98613     -32392.741      145.64791     -32247.093      1941.1483      23.496         23.496         100.9345       0              0              0            
   1448200   890.69139     -32393.741      147.25242     -32246.489      3243.5717      23.496         23.496         100.48683      0              0              0            
   1448300   900.01229     -32396.87       148.79339     -32248.076      1341.0295      23.496         23.496         100.74472      0              0              0            
   1448400   882.58445     -32393.398      145.91215     -32247.486      2905.4368      23.496         23.496         100.79822      0              0              0            
   1448500   892.49569     -32397.136      147.55071     -32249.586      1712.3122      23.496         23.496         100.97094      0              0              0            
   1448600   886.02216     -32397.717      146.48049     -32251.237      2997.059       23.496         23.496         100.25148      0              0              0            
   1448700   881.13204     -32400.236      145.67203     -32254.564      3696.4877      23.496         23.496         99.345489      0              0              0            
   1448800   864.56633     -32394.685      142.93333     -32251.752      1647.6837      23.496         23.496         100.59178      0              0              0            
   1448900   881.98862     -32394.811      145.81364     -32248.997      1738.4239      23.496         23.496         100.69222      0              0              0            
   1449000   901.33347     -32394.161      149.01181     -32245.15       4163.8719      23.496         23.496         99.728345      0              0              0            
   1449100   896.94328     -32393.386      148.28601     -32245.1        2521.8826      23.496         23.496         100.13443      0              0              0            
   1449200   892.64618     -32392.619      147.57559     -32245.044      2295.2695      23.496         23.496         100.7806       0              0              0            
   1449300   886.36268     -32393.889      146.53678     -32247.352      3466.7697      23.496         23.496         99.802424      0              0              0            
   1449400   891.11276     -32392.151      147.32208     -32244.829      3641.7403      23.496         23.496         99.277242      0              0              0            
   1449500   870.50016     -32387.954      143.91433     -32244.039      2213.7587      23.496         23.496         100.50163      0              0              0            
   1449600   865.44773     -32388.443      143.07904     -32245.364      2833.8128      23.496         23.496         100.31184      0              0              0            
   1449700   881.72382     -32390.404      145.76987     -32244.634      3101.4149      23.496         23.496         100.10023      0              0              0            
   1449800   890.2105      -32392.289      147.17292     -32245.116      3202.2896      23.496         23.496         100.51181      0              0              0            
   1449900   898.35295     -32390.112      148.51906     -32241.593      2784.417       23.496         23.496         100.48769      0              0              0            
   1450000   929.92279     -32395.965      153.7383      -32242.226      2816.5197      23.496         23.496         100.23133      0              0              0            
   1450100   882.25358     -32387.68       145.85745     -32241.822      2364.9046      23.496         23.496         100.75218      0              0              0            
   1450200   876.69477     -32386.818      144.93845     -32241.88       2538.2635      23.496         23.496         101.14042      0              0              0            
   1450300   882.82039     -32391.237      145.95116     -32245.286      1946.0194      23.496         23.496         100.83979      0              0              