ITEM: TIMESTEP
0
ITEM: NUMBER OF ATOMS
1280
ITEM: BOX BOUNDS xy xz yz pp pp pp
0.0000000000000000e+00 2.3495999999999999e+01 0.0000000000000000e+00
0.0000000000000000e+00 2.3495999999999999e+01 0.0000000000000000e+00
0.0000000000000000e+00 9.7000000000000000e+01 0.0000000000000000e+00
ITEM: ATOMS id type xs ys zs
1040 3 0.112865 0.12643 0.0306591
47 1 0.0858952 0.00113267 0.0283625
228 1 0.226326 0.0985856 0.038147
1100 3 0.340701 0.12758 0.0317847
227 1 0.350785 0.00847535 0.0362739
844 2 0.217826 0.0089888 0.00184499
226 1 0.331638 0.123611 0.00238354
240 1 0.480603 0.132057 0.0314454
239 1 0.608948 0.0140908 0.0356791
36 1 0.727706 0.169879 0.0330442
1104 3 0.605674 0.148199 0.0285401
780 2 0.727906 0.0141957 0.00538171
48 1 0.982709 0.138147 0.0288201
35 1 0.859076 0.014575 0.0264958
1036 3 0.864018 0.148978 0.0306588
34 1 0.860573 0.177623 0.00225352
137 1 0.135637 0.242386 0.0305287
1070 3 0.118356 0.3683 0.0318565
136 1 0.119537 0.356314 0.00166935
814 2 0.00376746 0.26724 0.00655243
317 1 0.338179 0.244727 0.0307425
1130 3 0.362738 0.393252 0.0294399
318 1 0.238979 0.385326 0.0293198
878 2 0.449529 0.226658 0.00171608
329 1 0.564577 0.267841 0.0235213
1134 3 0.610774 0.379367 0.0292534
126 1 0.73371 0.381274 0.0322562
125 1 0.877218 0.270773 0.0372028
1066 3 0.86501 0.382295 0.0300813
138 1 0.983562 0.372562 0.0324446
143 1 0.0927274 0.504437 0.0278805
323 1 0.369026 0.513785 0.0214554
876 2 0.234877 0.516385 0.00305107
330 1 0.4855 0.410896 0.0276347
335 1 0.610005 0.508174 0.0355111
131 1 0.87051 0.510834 0.0277417
41 1 0.111521 0.74526 0.0270061
1072 3 0.11606 0.625919 0.0302214
221 1 0.373584 0.760706 0.0310001
324 1 0.233297 0.628553 0.0352372
1132 3 0.357043 0.631758 0.0282575
842 2 0.251876 0.764703 0.0034862
322 1 0.344039 0.653387 0.000999319
336 1 0.488299 0.635157 0.0258137
846 2 0.498243 0.746444 0.000344369
233 1 0.635391 0.757704 0.0247947
1136 3 0.613002 0.630751 0.031671
132 1 0.7446 0.640437 0.0363435
334 1 0.621419 0.628903 0.000470684
144 1 0.988197 0.632755 0.0239511
29 1 0.834961 0.759791 0.0333446
1068 3 0.869073 0.629422 0.0308859
1038 3 0.0949187 0.868656 0.0287703
222 1 0.225456 0.888163 0.030752
1098 3 0.354615 0.880363 0.0320436
220 1 0.355798 0.865717 0.00126685
234 1 0.479829 0.876525 0.0337588
1102 3 0.613842 0.885944 0.0313615
30 1 0.730229 0.910584 0.0360152
232 1 0.612045 0.891435 0.000570355
42 1 0.966287 0.838979 0.0274633
1034 3 0.852209 0.879196 0.0310281
784 2 0.997436 0.977709 0.00446478
28 1 0.850462 0.859777 0.0011118
67 1 0.09601 0.131527 0.0612307
1047 3 0.0913584 0.136759 0.091194
68 1 0.124493 0.0156169 0.0890545
247 1 0.345423 0.147793 0.06272
249 1 0.221534 0.146788 0.08832
1107 3 0.352623 0.141093 0.0906473
851 2 0.246849 0.0115281 0.0666963
248 1 0.363545 0.0234207 0.0857773
261 1 0.477739 0.140475 0.0873155
1111 3 0.605315 0.128765 0.0875677
259 1 0.604565 0.15432 0.0594786
57 1 0.725619 0.114639 0.0946599
69 1 0.974375 0.110651 0.0914461
55 1 0.844484 0.11472 0.0612571
1043 3 0.848177 0.12426 0.091439
791 2 0.992101 0.0154026 0.0602018
1077 3 0.103093 0.394558 0.0935905
158 1 0.0915043 0.254917 0.0919275
157 1 0.127067 0.362184 0.0640574
338 1 0.373289 0.257926 0.0882925
881 2 0.224093 0.260269 0.0650629
339 1 0.225414 0.391249 0.0928783
885 2 0.479723 0.251272 0.0614589
350 1 0.59611 0.254078 0.089271
1141 3 0.60975 0.380032 0.0872456
817 2 0.739222 0.278615 0.0597783
349 1 0.604342 0.365004 0.0596793
147 1 0.74082 0.356558 0.0912384
821 2 0.973864 0.224455 0.0694381
146 1 0.859868 0.250651 0.090885
1073 3 0.859421 0.380348 0.0940294
145 1 0.857221 0.399188 0.060516
164 1 0.108938 0.519848 0.0922054
1137 3 0.359159 0.402179 0.0901523
337 1 0.371969 0.403883 0.0601137
883 2 0.235859 0.518701 0.064707
344 1 0.349773 0.513618 0.0935518
351 1 0.494759 0.413914 0.0892521
887 2 0.493088 0.528772 0.0634043
819 2 0.74375 0.501893 0.0623178
356 1 0.636372 0.495789 0.0846585
823 2 0.97306 0.486214 0.0583268
159 1 0.978286 0.401128 0.088236
152 1 0.840986 0.508094 0.0933548
163 1 0.0901833 0.621169 0.0597089
1079 3 0.10632 0.645577 0.0918098
62 1 0.100207 0.768687 0.0854563
343 1 0.353513 0.637352 0.0600351
849 2 0.213806 0.78912 0.0582335
345 1 0.236735 0.636903 0.0909478
242 1 0.344382 0.756335 0.0946567
1139 3 0.366888 0.638731 0.0894926
853 2 0.448145 0.773305 0.0635595
357 1 0.483905 0.602658 0.092204
355 1 0.586913 0.656055 0.0615596
785 2 0.714375 0.734605 0.0658831
153 1 0.738861 0.654071 0.0920259
1143 3 0.61856 0.630738 0.0919397
789 2 0.982009 0.742978 0.056292
151 1 0.861724 0.636331 0.0614744
50 1 0.895231 0.758821 0.0906531
1075 3 0.866003 0.628231 0.0907649
61 1 0.0824314 0.879398 0.0577022
1045 3 0.103533 0.892847 0.0888399
1105 3 0.354861 0.878573 0.0914237
243 1 0.235946 0.88875 0.0879955
241 1 0.332057 0.874488 0.0610932
855 2 0.492511 0.997668 0.0623211
255 1 0.474736 0.872696 0.0864399
253 1 0.582717 0.842077 0.0594507
787 2 0.725159 0.994137 0.0678204
260 1 0.618963 0.998911 0.0907935
1109 3 0.606354 0.856343 0.0899562
51 1 0.738647 0.855226 0.0882825
56 1 0.853247 0.997669 0.0923967
49 1 0.880734 0.899319 0.0598182
1041 3 0.864653 0.877159 0.0919677
63 1 0.983993 0.904389 0.093377
70 1 0.0850722 0.14574 0.121828
250 1 0.360501 0.130964 0.121801
856 2 0.49399 0.0179971 0.116216
262 1 0.604851 0.127788 0.121246
788 2 0.750846 0.00313911 0.118424
58 1 0.883021 0.121204 0.121167
160 1 0.0755177 0.370765 0.12352
882 2 0.222012 0.256051 0.119768
886 2 0.48114 0.223036 0.122172
352 1 0.628425 0.386056 0.121823
818 2 0.727606 0.268487 0.123452
822 2 0.979725 0.257515 0.127625
148 1 0.860509 0.391141 0.122399
340 1 0.332027 0.406755 0.119168
884 2 0.23834 0.525779 0.121814
888 2 0.458017 0.490737 0.1234
820 2 0.735767 0.526274 0.121066
824 2 0.990746 0.489409 0.116725
166 1 0.126325 0.633029 0.121404
346 1 0.365936 0.625364 0.122271
850 2 0.238876 0.768956 0.124166
254 1 0.592904 0.746049 0.0960146
854 2 0.480613 0.756218 0.122595
358 1 0.583992 0.615488 0.121093
786 2 0.733129 0.766197 0.120476
165 1 0.979171 0.609753 0.0980475
790 2 0.997034 0.755824 0.121863
154 1 0.83507 0.656117 0.11995
64 1 0.113875 0.878287 0.118074
852 2 0.237051 0.983624 0.121887
244 1 0.353135 0.87907 0.122369
256 1 0.623068 0.869343 0.121772
792 2 0.969708 0.992834 0.128052
52 1 0.831819 0.864366 0.122991
71 1 0.0753601 0.00536481 0.156933
91 1 0.128305 0.17949 0.181966
1048 3 0.100311 0.141042 0.152916
252 1 0.236859 0.124135 0.145764
271 1 0.309608 0.142274 0.180384
1108 3 0.358366 0.142846 0.152901
859 2 0.244466 0.00342426 0.176606
251 1 0.366167 0.0208393 0.150038
264 1 0.495956 0.130239 0.164257
263 1 0.595485 0.0104445 0.149756
863 2 0.517299 0.0110297 0.181944
283 1 0.629146 0.139546 0.181513
1112 3 0.608979 0.136485 0.152866
60 1 0.743146 0.131211 0.147162
72 1 0.982404 0.138854 0.16095
59 1 0.855745 0.0144059 0.152438
79 1 0.831553 0.133998 0.183126
1044 3 0.85675 0.141177 0.152176
799 2 0.964736 3.98622e-05 0.177691
161 1 0.108986 0.259794 0.150357
1078 3 0.109863 0.373297 0.153196
341 1 0.362495 0.273251 0.15404
889 2 0.240874 0.274197 0.176995
361 1 0.387055 0.390771 0.178856
1138 3 0.360363 0.391559 0.150886
342 1 0.239221 0.378813 0.154166
354 1 0.484565 0.354164 0.145932
893 2 0.490389 0.270301 0.178866
373 1 0.625482 0.37082 0.180547
1142 3 0.617084 0.383041 0.149892
353 1 0.612674 0.25095 0.147329
825 2 0.728164 0.25625 0.18616
829 2 0.981235 0.259316 0.182196
149 1 0.837197 0.269238 0.155831
1074 3 0.86369 0.392246 0.155333
162 1 0.987625 0.37525 0.151653
181 1 0.121347 0.404589 0.181034
167 1 0.118107 0.506084 0.156161
831 2 0.00760448 0.486714 0.18147
891 2 0.255091 0.52665 0.186612
347 1 0.343043 0.516237 0.159287
895 2 0.475507 0.534015 0.178329
150 1 0.736964 0.410513 0.155454
359 1 0.60244 0.507335 0.149335
827 2 0.729283 0.515182 0.189205
169 1 0.846526 0.401454 0.184099
155 1 0.87289 0.523234 0.148097
65 1 0.0951779 0.76132 0.154965
187 1 0.0903858 0.638569 0.183752
1080 3 0.107333 0.637298 0.154165
245 1 0.36918 0.781883 0.14662
348 1 0.235485 0.646917 0.154167
1140 3 0.357042 0.638848 0.150541
857 2 0.230482 0.777063 0.181047
367 1 0.356959 0.640304 0.185509
360 1 0.478927 0.614488 0.148974
379 1 0.609935 0.614559 0.180908
257 1 0.60197 0.751799 0.153585
1144 3 0.60493 0.635716 0.151029
156 1 0.727319 0.657063 0.14864
793 2 0.705865 0.74251 0.184879
168 1 0.981144 0.619692 0.159485
797 2 0.972415 0.744135 0.180534
53 1 0.877057 0.762009 0.156537
175 1 0.842435 0.610444 0.181915
1076 3 0.841664 0.643241 0.1533
85 1 0.0785956 0.863935 0.181932
1046 3 0.0953277 0.873369 0.152693
246 1 0.232197 0.897204 0.149523
265 1 0.369826 0.897462 0.182811
1106 3 0.354047 0.893025 0.153132
258 1 0.476447 0.913589 0.144103
277 1 0.579317 0.874965 0.182112
1110 3 0.598045 0.894557 0.15112
795 2 0.71694 0.98544 0.18113
54 1 0.733724 0.859374 0.153214
66 1 0.985808 0.866429 0.143914
73 1 0.849153 0.884999 0.183884
1042 3 0.849299 0.882115 0.152262
1055 3 0.119865 0.12983 0.212693
92 1 0.0947357 0.0180208 0.203661
273 1 0.23265 0.0625129 0.218996
1115 3 0.35815 0.114946 0.207474
285 1 0.481365 0.138275 0.206986
284 1 0.636861 0.00534384 0.212592
81 1 0.736389 0.138765 0.213735
1119 3 0.615091 0.129338 0.213659
93 1 0.998535 0.155326 0.209521
80 1 0.889409 0.010147 0.213205
1051 3 0.862667 0.13413 0.212142
182 1 0.117453 0.260364 0.215003
1085 3 0.116616 0.391673 0.213648
362 1 0.348954 0.255106 0.212017
1145 3 0.354957 0.37413 0.213769
375 1 0.493638 0.363859 0.210133
894 2 0.475257 0.220211 0.237078
374 1 0.63786 0.248435 0.215433
1149 3 0.615398 0.37409 0.210969
183 1 0.999085 0.364263 0.210496
170 1 0.857487 0.257767 0.211929
1081 3 0.873209 0.398285 0.216203
830 2 0.997079 0.253742 0.236549
188 1 0.0971419 0.52235 0.220021
363 1 0.239827 0.403768 0.218808
368 1 0.339415 0.511351 0.219652
380 1 0.606388 0.505504 0.210894
171 1 0.736942 0.410558 0.216996
176 1 0.890772 0.517589 0.212252
86 1 0.122314 0.779182 0.217057
1087 3 0.104089 0.650685 0.214883
266 1 0.332195 0.762681 0.210587
369 1 0.225042 0.653799 0.211087
1147 3 0.346348 0.638984 0.217519
861 2 0.460923 0.753801 0.191887
381 1 0.468499 0.630243 0.212154
1151 3 0.595743 0.625564 0.212427
177 1 0.719977 0.659961 0.215168
278 1 0.605914 0.754 0.214525
189 1 0.974573 0.65289 0.217801
74 1 0.866679 0.764855 0.212737
1083 3 0.845544 0.638913 0.214045
1053 3 0.108745 0.894872 0.21132
272 1 0.384464 0.998207 0.204344
267 1 0.234931 0.895447 0.20476
1113 3 0.343483 0.880909 0.218331
279 1 0.48445 0.862328 0.215664
1117 3 0.618292 0.880018 0.213406
75 1 0.739705 0.855538 0.210203
87 1 0.996156 0.859758 0.215006
1049 3 0.872011 0.889822 0.214776
94 1 0.0686249 0.126391 0.243293
1056 3 0.104256 0.154029 0.272571
95 1 0.0719744 0.0191508 0.279848
274 1 0.388402 0.108644 0.245569
276 1 0.238104 0.1386 0.267249
1116 3 0.351765 0.147563 0.273533
860 2 0.20946 0.0106009 0.255911
275 1 0.350508 0.0250842 0.279739
288 1 0.481073 0.141158 0.27682
864 2 0.50202 0.0132157 0.240222
286 1 0.6044 0.124218 0.245034
287 1 0.616989 0.0112449 0.276085
84 1 0.750772 0.137588 0.27352
1120 3 0.622916 0.137148 0.275887
796 2 0.751865 0.0175353 0.247415
82 1 0.870362 0.136096 0.244714
83 1 0.882019 0.00471244 0.276949
1052 3 0.868635 0.131797 0.273049
96 1 0.981855 0.172714 0.277988
185 1 0.127425 0.270216 0.269286
184 1 0.114154 0.393576 0.243936
890 2 0.245253 0.277973 0.244642
365 1 0.371743 0.275173 0.26733
364 1 0.387347 0.373067 0.241594
378 1 0.511671 0.375284 0.281487
377 1 0.621769 0.263455 0.278249
1150 3 0.626279 0.392517 0.269375
826 2 0.755699 0.271575 0.241567
376 1 0.624527 0.378126 0.242175
186 1 0.991899 0.377461 0.277292
173 1 0.833104 0.258914 0.273134
172 1 0.885393 0.374492 0.245553
1082 3 0.870331 0.378013 0.280478
1086 3 0.112285 0.405204 0.277233
191 1 0.0710971 0.512327 0.274362
366 1 0.25624 0.411979 0.267803
1146 3 0.363935 0.416935 0.283562
892 2 0.236302 0.524481 0.244194
371 1 0.399582 0.511546 0.269847
269 1 0.221332 0.595368 0.274439
896 2 0.478913 0.491597 0.23937
383 1 0.596738 0.508446 0.267419
828 2 0.735778 0.506109 0.242451
174 1 0.746918 0.413326 0.266159
832 2 0.964544 0.519308 0.244897
179 1 0.854282 0.510685 0.27328
89 1 0.0993161 0.763339 0.279335
190 1 0.113375 0.645956 0.247294
1088 3 0.104696 0.63546 0.279908
858 2 0.249186 0.729775 0.248841
370 1 0.378124 0.658535 0.244929
1148 3 0.348153 0.627517 0.282695
591 1 0.338689 0.75789 0.281599
862 2 0.500194 0.74713 0.243997
384 1 0.471784 0.641004 0.283995
382 1 0.593346 0.634091 0.240525
1152 3 0.591594 0.635067 0.272991
794 2 0.707794 0.770727 0.240595
281 1 0.621461 0.752898 0.267618
180 1 0.719887 0.622855 0.266926
798 2 0.998663 0.728931 0.24988
178 1 0.841998 0.623286 0.243287
192 1 0.968102 0.632506 0.281178
77 1 0.861894 0.762043 0.260519
1084 3 0.833307 0.650365 0.275698
88 1 0.0959221 0.900173 0.245627
1054 3 0.109261 0.881854 0.276477
268 1 0.341087 0.838117 0.246358
270 1 0.225728 0.861479 0.276124
1114 3 0.345918 0.885831 0.277435
282 1 0.482003 0.906789 0.266
280 1 0.614926 0.89544 0.245046
78 1 0.730322 0.879894 0.269481
1118 3 0.603988 0.891361 0.274241
800 2 0.96718 0.987256 0.245723
90 1 0.977205 0.879153 0.281494
76 1 0.837155 0.906278 0.24318
1050 3 0.842428 0.877887 0.276518
386 1 0.154175 0.147839 0.301908
388 1 0.0723017 0.0238483 0.324184
600 1 0.354541 0.13477 0.304275
1219 3 0.323476 0.0139927 0.315261
997 2 0.498785 0.0300968 0.300146
687 1 0.523 0.194757 0.312395
597 1 0.586245 0.0656387 0.331995
595 1 0.452501 0.00302587 0.332566
578 1 0.66733 0.140025 0.303225
1155 3 0.740312 0.0360258 0.311478
1250 3 0.620104 0.179705 0.33117
408 1 0.834759 0.117956 0.309686
934 2 0.981988 0.137172 0.310932
387 1 0.914356 0.00240076 0.328913
494 1 0.158935 0.369472 0.305735
933 2 0.0445559 0.272678 0.297899
898 2 0.237168 0.266773 0.294224
678 1 0.366768 0.308693 0.307646
1249 3 0.452934 0.272263 0.287913
1000 2 0.545056 0.337747 0.32262
962 2 0.735265 0.267058 0.297571
688 1 0.713152 0.306384 0.333138
493 1 0.903198 0.289913 0.303318
1185 3 0.88482 0.353871 0.328394
372 1 0.165773 0.537942 0.308912
1189 3 0.220748 0.450044 0.323606
685 1 0.318513 0.482194 0.305456
676 1 0.470152 0.472937 0.308727
1255 3 0.561895 0.587903 0.321342
692 1 0.651446 0.421023 0.299079
1187 3 0.742138 0.505134 0.290231
504 1 0.69189 0.559341 0.319252
902 2 0.991192 0.571337 0.322397
484 1 0.802652 0.405511 0.305074
500 1 0.981086 0.411138 0.32179
482 1 0.120925 0.686737 0.309797
1251 3 0.207152 0.626684 0.326084
696 1 0.294137 0.645098 0.308013
596 1 0.439433 0.626486 0.331998
965 2 0.494636 0.772038 0.308246
691 1 0.593599 0.683993 0.301584
994 2 0.696663 0.779138 0.300696
399 1 0.80741 0.609432 0.30461
901 2 0.99119 0.767196 0.307402
397 1 0.833719 0.780854 0.297073
404 1 0.08004 0.895583 0.307105
589 1 0.375466 0.806072 0.330288
930 2 0.2376 0.808096 0.311278
392 1 0.231104 0.974551 0.302315
391 1 0.412856 0.908211 0.302089
674 1 0.588093 0.885568 0.310913
585 1 0.788546 0.922374 0.305996
1153 3 0.993426 0.972165 0.29957
964 2 0.850962 0.851693 0.330779
1159 3 0.131589 0.177432 0.338756
498 1 0.153654 0.166747 0.36878
395 1 0.00146579 0.0983984 0.355501
389 1 0.150303 0.0167404 0.363112
393 1 0.260319 0.0854754 0.33811
1160 3 0.286685 0.0926562 0.371099
401 1 0.39193 0.146615 0.372075
1220 3 0.499008 0.0807409 0.353378
432 1 0.705528 0.162016 0.358264
684 1 0.738463 0.00242211 0.339401
899 2 0.84899 0.0891774 0.355143
403 1 0.0472308 0.262105 0.333901
903 2 0.00544293 0.223255 0.370678
1190 3 0.0639664 0.369137 0.345315
496 1 0.108603 0.323299 0.371345
998 2 0.395388 0.216503 0.3344
675 1 0.299569 0.392196 0.340915
405 1 0.217744 0.251958 0.335327
932 2 0.243149 0.290469 0.371198
690 1 0.545671 0.212361 0.352827
673 1 0.445322 0.375072 0.347355
1254 3 0.607385 0.202092 0.38044
929 2 0.78749 0.307651 0.366797
686 1 0.887165 0.231373 0.345118
495 1 0.952165 0.353514 0.354703
487 1 0.170589 0.469076 0.35385
996 2 0.0422889 0.515459 0.37202
936 2 0.286124 0.48427 0.375036
489 1 0.305355 0.556535 0.340798
1252 3 0.408249 0.478107 0.333387
677 1 0.43418 0.583728 0.360917
679 1 0.558364 0.507642 0.347727
1257 3 0.561109 0.429324 0.376432
681 1 0.708209 0.546188 0.356588
1253 3 0.676196 0.447267 0.340429
1188 3 0.783277 0.596875 0.335949
680 1 0.7976 0.447383 0.34292
693 1 0.677742 0.429075 0.373011
483 1 0.911268 0.543648 0.349582
1191 3 0.0856584 0.72937 0.352019
488 1 0.0644907 0.602355 0.347627
491 1 0.0255775 0.710872 0.37722
1217 3 0.356553 0.667379 0.348785
582 1 0.221877 0.719995 0.353604
580 1 0.376531 0.794677 0.374669
966 2 0.551315 0.669057 0.370965
683 1 0.607583 0.673127 0.335645
1256 3 0.75857 0.751495 0.364501
698 1 0.781872 0.642745 0.377665
499 1 0.936954 0.699577 0.336816
390 1 0.802257 0.713159 0.337436
1186 3 0.911322 0.648993 0.364572
682 1 0.861445 0.765933 0.379453
1157 3 0.191397 0.982708 0.338156
1156 3 0.015478 0.983046 0.347954
398 1 0.156249 0.85798 0.337666
400 1 0.00518536 0.831759 0.35132
900 2 0.247445 0.862909 0.380066
579 1 0.313761 0.949546 0.346505
590 1 0.527224 0.809369 0.342869
1221 3 0.417485 0.869524 0.353123
584 1 0.514146 0.970937 0.365137
1223 3 0.604295 0.907428 0.339013
588 1 0.768557 0.905422 0.364245
583 1 0.695104 0.829664 0.338291
1222 3 0.687285 0.977588 0.366757
501 1 0.961993 0.95676 0.374808
1154 3 0.983871 0.829506 0.380731
904 2 0.0687943 0.0642548 0.395227
394 1 0.352064 0.00454187 0.388227
410 1 0.263244 0.183751 0.393018
415 1 0.205989 0.131126 0.424115
1227 3 0.297638 0.0711607 0.412016
581 1 0.553388 0.100509 0.387328
492 1 0.58311 0.171693 0.424471
577 1 0.442224 0.069539 0.425934
993 2 0.4582 0.195685 0.403347
593 1 0.77565 0.0178529 0.389785
967 2 0.636965 0.0318223 0.419479
1224 3 0.836751 0.0887646 0.409881
385 1 0.867389 0.161152 0.389268
402 1 0.93252 0.0105173 0.414612
941 2 0.141689 0.243673 0.404788
503 1 0.23838 0.384927 0.398451
712 1 0.312669 0.252574 0.423957
1259 3 0.325731 0.375366 0.423911
695 1 0.548191 0.325337 0.393094
711 1 0.433102 0.348288 0.416848
1005 2 0.585333 0.347708 0.428293
598 1 0.701708 0.219736 0.399049
528 1 0.73311 0.364722 0.412216
1163 3 0.789285 0.251364 0.425445
517 1 0.999751 0.254779 0.404411
1193 3 0.982287 0.373755 0.418091
481 1 0.0765552 0.439057 0.405123
1197 3 0.189768 0.472045 0.418294
490 1 0.180688 0.555102 0.394407
709 1 0.310345 0.524549 0.419472
995 2 0.41808 0.541151 0.395736
694 1 0.57186 0.47754 0.403262
507 1 0.779742 0.524442 0.420788
519 1 0.92836 0.407295 0.392306
931 2 0.80645 0.49825 0.384373
497 1 0.157207 0.736687 0.398197
935 2 0.0485703 0.623187 0.415154
1192 3 0.237153 0.637125 0.411563
396 1 0.300319 0.653471 0.388395
594 1 0.508972 0.644555 0.407076
961 2 0.41389 0.769576 0.412486
592 1 0.676971 0.752249 0.384828
999 2 0.641594 0.616237 0.428107
599 1 0.712232 0.782449 0.422446
486 1 0.933467 0.607536 0.39235
485 1 0.97884 0.765413 0.412707
972 2 0.845161 0.650314 0.41198
407 1 0.104389 0.865334 0.386142
1158 3 0.120293 0.819133 0.414163
427 1 0.073685 0.938087 0.419408
406 1 0.231623 0.841591 0.41944
603 1 0.219317 0.978916 0.403765
587 1 0.520196 0.849608 0.386957
963 2 0.487179 0.977509 0.399105
1218 3 0.615838 0.818842 0.405168
607 1 0.777617 0.994414 0.42277
689 1 0.665053 0.929437 0.394407
897 2 0.80482 0.883989 0.399761
429 1 0.148008 0.0493063 0.452945
942 2 0.109722 0.18818 0.453107
906 2 0.269052 0.145918 0.455055
417 1 0.302527 0.00335628 0.438954
624 1 0.415625 0.109225 0.461037
1231 3 0.527024 0.114389 0.446367
411 1 0.601227 0.020068 0.454997
602 1 0.804326 0.136465 0.438983
423 1 0.964519 0.138117 0.430874
1161 3 0.91389 0.0444689 0.441974
413 1 0.901913 0.0773265 0.475294
518 1 0.0938863 0.320904 0.432337
520 1 0.0185198 0.338563 0.46835
425 1 0.178912 0.318551 0.469858
716 1 0.374668 0.324297 0.453928
619 1 0.516584 0.263666 0.458605
1261 3 0.461929 0.388691 0.472972
515 1 0.721615 0.278473 0.448509
510 1 0.804309 0.349794 0.475613
412 1 0.884777 0.332803 0.432901
937 2 0.912799 0.226686 0.461693
524 1 0.00016851 0.470457 0.448674
1198 3 0.10736 0.406813 0.453286
511 1 0.12553 0.544867 0.439508
700 1 0.252436 0.43357 0.450061
938 2 0.288465 0.587144 0.457206
615 1 0.539591 0.498993 0.458846
706 1 0.408225 0.489386 0.474825
508 1 0.68772 0.461534 0.451587
1195 3 0.77288 0.421155 0.435286
1194 3 0.906974 0.41092 0.465802
523 1 0.851873 0.545748 0.465803
514 1 0.127265 0.712986 0.436745
1199 3 0.037964 0.756298 0.450371
521 1 0.0795034 0.733665 0.47588
720 1 0.313941 0.698831 0.433757
715 1 0.387668 0.702579 0.465298
908 2 0.269632 0.79221 0.454535
973 2 0.453087 0.6115 0.443184
717 1 0.564488 0.678756 0.463435
1226 3 0.494686 0.778213 0.464379
424 1 0.7848 0.756841 0.458524
506 1 0.954743 0.668067 0.44379
1167 3 0.184329 0.948828 0.432297
525 1 0.126128 0.873926 0.451369
1228 3 0.101668 0.96254 0.475645
613 1 0.39984 0.884774 0.435567
586 1 0.562724 0.801378 0.433395
614 1 0.50606 0.901031 0.467223
1225 3 0.420337 0.984814 0.453656
1002 2 0.677429 0.876453 0.448379
428 1 0.993046 0.951547 0.453828
421 1 0.825306 0.959121 0.461081
909 2 0.909869 0.822218 0.435825
418 1 0.94266 0.841597 0.469321
516 1 0.0287153 0.0266929 0.49937
1168 3 0.0489669 0.135438 0.493572
719 1 0.174409 0.148121 0.484648
1003 2 0.302459 0.0924781 0.504456
714 1 0.423249 0.163086 0.513095
604 1 0.535304 0.119005 0.481379
1262 3 0.54812 0.150797 0.509716
626 1 0.492981 0.0220393 0.511866
970 2 0.736481 0.0487488 0.481398
617 1 0.650673 0.0316664 0.507912
409 1 0.673416 0.178448 0.520984
912 2 0.908486 0.138627 0.517633
431 1 0.84199 0.00426064 0.505285
911 2 0.102846 0.364217 0.504999
527 1 0.246983 0.336623 0.506914
1258 3 0.279045 0.390676 0.477359
1006 2 0.416242 0.222978 0.479815
733 1 0.407534 0.367734 0.499404
710 1 0.554808 0.268862 0.497037
1004 2 0.632221 0.357772 0.480308
1232 3 0.737721 0.270129 0.506233
718 1 0.717367 0.385162 0.516538
609 1 0.816875 0.205151 0.490146
430 1 0.976788 0.225528 0.492101
939 2 0.897514 0.337134 0.514699
699 1 0.181766 0.473693 0.482914
940 2 0.0697351 0.567964 0.486452
701 1 0.368771 0.575112 0.513978
1267 3 0.286099 0.479412 0.515031
1263 3 0.554475 0.572946 0.481397
705 1 0.548085 0.451719 0.496038
1196 3 0.75001 0.494175 0.476491
703 1 0.675407 0.588367 0.478933
1264 3 0.652244 0.514002 0.513684
512 1 0.772319 0.506671 0.506322
502 1 0.954239 0.448769 0.491062
526 1 0.0179681 0.691841 0.513637
420 1 0.231739 0.659424 0.485935
1260 3 0.330456 0.696098 0.497337
513 1 0.264675 0.727647 0.519919
618 1 0.484163 0.760279 0.491278
612 1 0.558022 0.608937 0.51354
968 2 0.64228 0.741362 0.49578
1166 3 0.968359 0.774414 0.490967
414 1 0.803105 0.738532 0.500126
910 2 0.909653 0.611224 0.50404
530 1 0.039173 0.865896 0.4982
1200 3 0.195679 0.878775 0.509054
620 1 0.359645 0.965597 0.481162
606 1 0.282746 0.814562 0.492112
605 1 0.213138 0.955104 0.480164
611 1 0.269617 0.962337 0.521862
1229 3 0.57229 0.978327 0.490598
1001 2 0.419289 0.892382 0.507764
608 1 0.57557 0.890839 0.509312
610 1 0.688866 0.888725 0.482616
1162 3 0.798729 0.834921 0.483613
1164 3 0.919343 0.9607 0.481782
426 1 0.890511 0.857209 0.509563
621 1 0.0625469 0.150423 0.523918
449 1 0.15661 0.140159 0.56763
971 2 0.100771 0.00988045 0.531624
637 1 0.270931 0.118649 0.54383
975 2 0.469675 0.0847643 0.54969
1171 3 0.762633 0.0885267 0.567202
422 1 0.956971 0.00633158 0.536225
436 1 0.862952 0.144546 0.562623
949 2 0.186108 0.246134 0.534272
543 1 0.0174812 0.29596 0.536332
544 1 0.165875 0.396711 0.540782
434 1 0.328972 0.263928 0.558471
702 1 0.545308 0.202048 0.555549
914 2 0.483249 0.288732 0.531938
697 1 0.527318 0.391852 0.553734
1013 2 0.683838 0.30084 0.548049
708 1 0.800547 0.24792 0.529695
950 2 0.991238 0.216239 0.568443
1205 3 0.199633 0.510658 0.555969
548 1 0.031182 0.547468 0.526107
1201 3 0.0299154 0.419138 0.544325
536 1 0.0839127 0.527209 0.566436
707 1 0.202548 0.555869 0.525718
542 1 0.323578 0.464052 0.544451
723 1 0.471132 0.570298 0.553563
1008 2 0.468074 0.474923 0.527096
704 1 0.642205 0.484297 0.541139
1007 2 0.787756 0.513535 0.549332
522 1 0.916737 0.440679 0.539017
943 2 0.95577 0.576411 0.560633
944 2 0.143052 0.674793 0.535252
505 1 0.0618667 0.697242 0.564063
974 2 0.372387 0.672414 0.542073
535 1 0.244702 0.621215 0.564215
739 1 0.465488 0.708318 0.569797
976 2 0.583378 0.652301 0.551128
713 1 0.68991 0.619612 0.5255
1230 3 0.77239 0.736738 0.538978
509 1 0.710577 0.686052 0.562109
452 1 0.871646 0.666308 0.54114
917 2 0.974974 0.793013 0.537651
744 1 0.152538 0.836892 0.531712
451 1 0.078907 0.888001 0.565905
639 1 0.319423 0.837864 0.565496
982 2 0.237766 0.985936 0.562636
623 1 0.594923 0.812521 0.566371
601 1 0.432779 0.831848 0.538112
1233 3 0.444864 0.826109 0.567154
643 1 0.463755 0.965258 0.569898
907 2 0.602501 0.962153 0.541309
1237 3 0.708237 0.868769 0.564751
616 1 0.714248 0.865166 0.532344
416 1 0.826097 0.966687 0.561883
1169 3 0.953842 0.926938 0.561403
419 1 0.843651 0.81373 0.552166
1165 3 0.853454 0.932121 0.530518
1175 3 0.154285 0.157126 0.603744
455 1 0.0168884 0.128073 0.593498
1235 3 0.277435 0.175963 0.574296
627 1 0.268153 0.0572203 0.59138
648 1 0.397391 0.13741 0.580398
1234 3 0.222768 0.0163651 0.61707
978 2 0.592648 0.144432 0.587957
916 2 0.415083 0.174026 0.617116
631 1 0.709159 0.194237 0.571637
633 1 0.782194 0.0855034 0.595256
1172 3 0.889629 0.160179 0.60031
540 1 0.124394 0.288812 0.581469
458 1 0.186175 0.366075 0.611443
541 1 0.00812553 0.38279 0.608405
1206 3 0.107672 0.395993 0.590402
454 1 0.0747446 0.249385 0.618356
1009 2 0.266092 0.351712 0.582623
628 1 0.257129 0.225725 0.603235
726 1 0.374277 0.368392 0.602939
1014 2 0.469411 0.256305 0.581693
1239 3 0.737219 0.310249 0.600228
740 1 0.610466 0.344689 0.59069
645 1 0.852141 0.27299 0.591698
437 1 0.998097 0.392288 0.573964
453 1 0.277119 0.48997 0.591773
948 2 0.408767 0.498662 0.582463
731 1 0.534682 0.452401 0.607664
456 1 0.742834 0.428551 0.5746
1265 3 0.6045 0.443729 0.572019
728 1 0.659642 0.554776 0.592928
1203 3 0.7598 0.550667 0.608963
1012 2 0.874497 0.427158 0.590521
552 1 0.977773 0.598559 0.597648
722 1 0.837506 0.565832 0.581512
946 2 0.140551 0.647861 0.589975
439 1 0.182217 0.783139 0.581148
1173 3 0.0650131 0.79263 0.581669
547 1 0.0717554 0.720319 0.618032
969 2 0.328263 0.741871 0.588993
724 1 0.402211 0.635943 0.60562
981 2 0.623245 0.701439 0.591811
727 1 0.742771 0.705189 0.609796
905 2 0.824558 0.716421 0.585881
440 1 0.149847 0.953568 0.595794
977 2 0.192795 0.814977 0.616352
1174 3 0.0535761 0.981597 0.610377
438 1 0.0147187 0.875349 0.607916
630 1 0.294553 0.920944 0.610816
984 2 0.426783 0.998767 0.599092
622 1 0.44098 0.851953 0.600778
646 1 0.588168 0.99616 0.611607
638 1 0.672513 0.985403 0.572918
644 1 0.707877 0.849563 0.593915
448 1 0.971789 0.995959 0.581947
445 1 0.93111 0.819727 0.579046
1010 2 0.8544 0.933925 0.6044
532 1 0.877093 0.802117 0.615808
450 1 0.0415506 0.0284999 0.661391
444 1 0.14402 0.0932199 0.630687
635 1 0.32881 0.082149 0.631265
441 1 0.485857 0.0975425 0.635558
986 2 0.548154 0.145542 0.664398
1240 3 0.56945 0.0106332 0.640224
915 2 0.783164 0.0344879 0.631561
480 1 0.669601 0.0760391 0.653414
443 1 0.854733 0.186655 0.626583
1170 3 0.958783 0.0963775 0.648628
435 1 0.935019 0.0450554 0.61934
461 1 0.860154 0.165307 0.661191
433 1 0.888377 0.014892 0.658379
1176 3 0.0984603 0.368536 0.634255
475 1 0.0449823 0.241131 0.662588
979 2 0.227367 0.201082 0.651183
672 1 0.222743 0.373079 0.647888
632 1 0.360477 0.319172 0.638643
1236 3 0.443542 0.30103 0.659616
641 1 0.524113 0.264121 0.636706
1266 3 0.447301 0.377794 0.627847
634 1 0.667837 0.225989 0.620368
735 1 0.7925 0.338857 0.626811
919 2 0.643254 0.371796 0.635055
945 2 0.721745 0.237402 0.660728
957 2 0.949916 0.288746 0.635395
546 1 0.110002 0.481089 0.632974
1011 2 0.245739 0.496544 0.625951
732 1 0.365718 0.412541 0.664946
537 1 0.239421 0.548678 0.662333
551 1 0.423362 0.501675 0.626109
1269 3 0.572485 0.524416 0.629805
730 1 0.547196 0.439825 0.65252
1016 2 0.421624 0.549672 0.659385
734 1 0.687356 0.530706 0.631144
1202 3 0.983761 0.489871 0.624674
534 1 0.958977 0.422157 0.646913
531 1 0.855599 0.478635 0.624557
947 2 0.835934 0.552765 0.664895
539 1 0.970823 0.586153 0.643099
918 2 0.0991664 0.768296 0.652855
554 1 0.170639 0.648501 0.637743
538 1 0.323373 0.738631 0.633585
1208 3 0.25518 0.666176 0.660158
1268 3 0.442157 0.662042 0.629908
636 1 0.558372 0.651923 0.619053
725 1 0.468873 0.773795 0.637227
738 1 0.555593 0.617024 0.656867
736 1 0.677857 0.743079 0.642959
1204 3 0.798022 0.755655 0.634611
1270 3 0.676799 0.657334 0.665086
1207 3 0.95834 0.673589 0.621758
447 1 0.832011 0.633965 0.631179
533 1 0.954849 0.757373 0.651248
446 1 0.135978 0.944778 0.632967
741 1 0.29244 0.90952 0.64849
1238 3 0.379651 0.991442 0.657163
1271 3 0.380611 0.849382 0.627703
640 1 0.455918 0.936045 0.639587
647 1 0.59618 0.905292 0.651637
980 2 0.60533 0.859547 0.619121
746 1 0.777303 0.883293 0.634658
913 2 0.945661 0.910132 0.642716
667 1 0.260415 0.0842855 0.684046
1243 3 0.379397 0.137008 0.694616
642 1 0.47473 0.0467663 0.684494
465 1 0.501313 0.171519 0.702096
655 1 0.675787 0.124886 0.693654
1179 3 0.796735 0.0768409 0.688135
958 2 0.994346 0.152956 0.690666
657 1 0.842731 0.176064 0.698925
460 1 0.897659 0.0229421 0.70116
922 2 0.188857 0.229503 0.703099
1183 3 0.0117766 0.333793 0.67897
477 1 0.0462025 0.313527 0.706952
572 1 0.10406 0.395704 0.671816
442 1 0.397303 0.200434 0.667638
629 1 0.265141 0.293685 0.681215
983 2 0.415118 0.318781 0.698506
650 1 0.559603 0.30276 0.674076
1277 3 0.602068 0.346177 0.701542
751 1 0.706696 0.292965 0.692525
565 1 0.884995 0.304364 0.677567
1209 3 0.849819 0.364459 0.703355
952 2 0.0890793 0.544674 0.673175
566 1 0.049141 0.524403 0.709779
1213 3 0.246039 0.409197 0.678654
757 1 0.293513 0.408636 0.708357
747 1 0.388926 0.531585 0.697512
990 2 0.527606 0.57245 0.69974
756 1 0.557606 0.444545 0.688343
729 1 0.683253 0.530583 0.66792
743 1 0.781772 0.417619 0.683212
1279 3 0.70974 0.488671 0.694571
529 1 0.799561 0.572953 0.700309
567 1 0.924786 0.445007 0.697006
1212 3 0.947857 0.572176 0.70905
556 1 0.956237 0.592036 0.679792
545 1 0.130363 0.680896 0.684448
571 1 0.0231001 0.680713 0.713014
663 1 0.222628 0.788794 0.673804
559 1 0.370179 0.706734 0.672021