LAMMPS (29 Aug 2024 - Development - 6d634dc-modified)
OMP_NUM_THREADS environment is not set. Defaulting to 1 thread. (src/comm.cpp:99)
  using 1 OpenMP thread(s) per MPI task
units	metal
atom_style atomic
dimension 3
newton off

boundary p p p

read_data data.CPBr
Reading data file ...
  triclinic box = (0 0 0) to (23.496 23.496 97) with tilt (0 0 0)
  1 by 1 by 1 MPI processor grid
  reading atoms ...
  1280 atoms
  read_data CPU = 0.006 seconds

variable        p_id world   1

variable        temperature equal 800.0
variable        temperature2 equal 800.0
variable        tempDamp equal 100.0 # approx 0.1 ps

variable        pressure equal 1.00
variable        pressureDamp equal 500.0

variable        seed world 1428

mass            1 79.904     # Br
mass            2 132.904999 # Cs
mass            3 207.199997 # Pb

# allegro pair style
pair_style	nequip
pair_coeff	* * ./best.pth Br Cs Pb

neighbor 1.0 bin
neigh_modify delay 5 every 1

#write_dump all custom output.dump id type x y z fx fy fz
#
variable freq equal 100
#variable dt equal 0.001

thermo          ${freq}
thermo          100
thermo_style    custom step temp pe ke etotal press lx ly lz xy xz yz
restart         ${freq} restart.0 restart.2
restart         100 restart.0 restart.2

#minimize 0.0 1.0e-3 100 10000

# NVT

dump            myDump1 all atom 500 out.0.lammpstrj
fix             1 all temp/csvr ${temperature} ${temperature} $(100.0*dt) ${seed}
fix             1 all temp/csvr 800 ${temperature} $(100.0*dt) ${seed}
fix             1 all temp/csvr 800 800 $(100.0*dt) ${seed}
fix             1 all temp/csvr 800 800 0.10000000000000000555 ${seed}
fix             1 all temp/csvr 800 800 0.10000000000000000555 1428
fix             2 all nve
timestep        0.002
velocity        all create ${temperature} ${seed} dist gaussian
velocity        all create 800 ${seed} dist gaussian
velocity        all create 800 1428 dist gaussian
run             10000

CITE-CITE-CITE-CITE-CITE-CITE-CITE-CITE-CITE-CITE-CITE-CITE-CITE

Your simulation uses code contributions which should be cited:

- Type Label Framework: https://doi.org/10.1021/acs.jpcb.3c08419

@Article{Gissinger24,
 author = {Jacob R. Gissinger, Ilia Nikiforov, Yaser Afshar, Brendon Waters, Moon-ki Choi, Daniel S. Karls, Alexander Stukowski, Wonpil Im, Hendrik Heinz, Axel Kohlmeyer, and Ellad B. Tadmor},
 title = {Type Label Framework for Bonded Force Fields in LAMMPS},
 journal = {J. Phys. Chem. B},
 year =    2024,
 volume =  128,
 number =  13,
 pages =   {3282--3297}
}

CITE-CITE-CITE-CITE-CITE-CITE-CITE-CITE-CITE-CITE-CITE-CITE-CITE

Neighbor list info ...
  update: every = 1 steps, delay = 5 steps, check = yes
  max neighbors/atom: 2000, page size: 100000
  master list distance cutoff = 9
  ghost atom cutoff = 9
  binsize = 4.5, bins = 6 6 22
  1 neighbor lists, perpetual/occasional/extra = 1 0 0
  (1) pair nequip, perpetual
      attributes: full, newton off
      pair build: full/bin/atomonly
      stencil: full/bin/3d
      bin: standard
Per MPI rank memory allocation (min/avg/max) = 3.23 | 3.23 | 3.23 Mbytes
   Step          Temp          PotEng         KinEng         TotEng         Press            Lx             Ly             Lz             Xy             Xz             Yz      
         0   800           -32240.825      132.25898     -32108.566      11224.323      23.496         23.496         97             0              0              0            
       100   906.72836     -32316.216      149.90371     -32166.312      10124.675      23.496         23.496         97             0              0              0            
       200   848.87739     -32343.797      140.33957     -32203.458      6680.8801      23.496         23.496         97             0              0              0            
       300   837.99457     -32360.684      138.54038     -32222.144      6682.8953      23.496         23.496         97             0              0              0            
       400   833.13297     -32367.779      137.73665     -32230.042      6037.8624      23.496         23.496         97             0              0              0            
       500   832.41586     -32378.21       137.61809     -32240.592      4770.3521      23.496         23.496         97             0              0              0            
       600   789.71535     -32373.294      130.55868     -32242.735      5669.9074      23.496         23.496         97             0              0              0            
       700   811.90123     -32381.898      134.22654     -32247.672      5799.514       23.496         23.496         97             0              0              0            
       800   809.81188     -32380.948      133.88112     -32247.066      6826.1098      23.496         23.496         97             0              0              0            
       900   825.95765     -32381.392      136.5504      -32244.841      5536.9449      23.496         23.496         97             0              0              0            
      1000   780.82021     -32377.351      129.08811     -32248.262      6884.2097      23.496         23.496         97             0              0              0            
      1100   781.4162      -32378.875      129.18664     -32249.689      7647.9176      23.496         23.496         97             0              0              0            
      1200   754.24345     -32372.818      124.69434     -32248.123      7814.0492      23.496         23.496         97             0              0              0            
      1300   799.12296     -32381.856      132.11399     -32249.743      6921.1794      23.496         23.496         97             0              0              0            
      1400   793.85815     -32375.392      131.24359     -32244.148      7895.6621      23.496         23.496         97             0              0              0            
      1500   801.24739     -32374.767      132.4652      -32242.302      6805.8321      23.496         23.496         97             0              0              0            
      1600   803.10737     -32378.339      132.7727      -32245.566      6921.2881      23.496         23.496         97             0              0              0            
      1700   796.24601     -32378.335      131.63836     -32246.696      6184.5114      23.496         23.496         97             0              0              0            
      1800   791.6318      -32377.93       130.87552     -32247.054      5515.8637      23.496         23.496         97             0              0              0            
      1900   821.2161      -32378.53       135.7665      -32242.763      6341.2995      23.496         23.496         97             0              0              0            
      2000   825.90988     -32374.799      136.5425      -32238.256      6401.1124      23.496         23.496         97             0              0              0            
      2100   826.49108     -32377.96       136.63858     -32241.322      5135.1913      23.496         23.496         97             0              0              0            
      2200   859.98011     -32378.151      142.17512     -32235.976      4597.984       23.496         23.496         97             0              0              0            
      2300   820.22935     -32377.829      135.60337     -32242.226      4612.1769      23.496         23.496         97             0              0              0            
      2400   784.19608     -32381.039      129.64622     -32251.393      4175.8032      23.496         23.496         97             0              0              0            
      2500   789.05002     -32380.432      130.44869     -32249.984      4552.8653      23.496         23.496         97             0              0              0            
      2600   790.38232     -32376.727      130.66895     -32246.058      4781.3397      23.496         23.496         97             0              0              0            
      2700   796.44858     -32376.074      131.67185     -32244.402      5093.6706      23.496         23.496         97             0              0              0            
      2800   809.18252     -32371.501      133.77707     -32237.724      5117.0594      23.496         23.496         97             0              0              0            
      2900   824.11892     -32372.438      136.24641     -32236.192      5068.03        23.496         23.496         97             0              0              0            
      3000   813.30916     -32379.464      134.4593      -32245.004      5728.2725      23.496         23.496         97             0              0              0            
      3100   790.51659     -32380.874      130.69115     -32250.183      5130.0414      23.496         23.496         97             0              0              0            
      3200   815.07556     -32381.082      134.75133     -32246.33       5020.1061      23.496         23.496         97             0              0              0            
      3300   806.76508     -32378.129      133.37741     -32244.751      5149.8848      23.496         23.496         97             0              0              0            
      3400   789.13861     -32383.093      130.46334     -32252.63       5388.6329      23.496         23.496         97             0              0              0            
      3500   810.35666     -32382.17       133.97118     -32248.199      5141.7097      23.496         23.496         97             0              0              0            
      3600   795.03042     -32374.747      131.43739     -32243.31       6442.912       23.496         23.496         97             0              0              0            
      3700   811.53717     -32375.855      134.16635     -32241.689      6242.8012      23.496         23.496         97             0              0              0            
      3800   797.53881     -32379.227      131.85209     -32247.375      5593.361       23.496         23.496         97             0              0              0            
      3900   798.22913     -32382.812      131.96621     -32250.846      5748.4377      23.496         23.496         97             0              0              0            
      4000   788.29418     -32379.864      130.32373     -32249.54       7288.1196      23.496         23.496         97             0              0              0            
      4100   784.08304     -32381.172      129.62753     -32251.544      6136.6809      23.496         23.496         97             0              0              0            
      4200   795.53176     -32382.143      131.52027     -32250.623      5659.9272      23.496         23.496         97             0              0              0            
      4300   794.99443     -32382.329      131.43144     -32250.898      5875.2443      23.496         23.496         97             0              0              0            
      4400   792.47143     -32385.379      131.01433     -32254.365      5268.1261      23.496         23.496         97             0              0              0            
      4500   787.93192     -32389.696      130.26384     -32259.432      4541.2913      23.496         23.496         97             0              0              0            
      4600   799.43387     -32386.139      132.16539     -32253.973      4016.9452      23.496         23.496         97             0              0              0            
      4700   798.69646     -32384.669      132.04347     -32252.626      5046.9553      23.496         23.496         97             0              0              0            
      4800   817.2362      -32383.823      135.10853     -32248.715      5442.5165      23.496         23.496         97             0              0              0            
      4900   796.11343     -32379.556      131.61644     -32247.94       4297.2417      23.496         23.496         97             0              0              0            
      5000   808.15976     -32375.892      133.60798     -32242.284      3706.7471      23.496         23.496         97             0              0              0            
      5100   840.03521     -32382.924      138.87775     -32244.046      3930.0283      23.496         23.496         97             0              0              0            
      5200   796.34651     -32383.727      131.65497     -32252.072      3018.7128      23.496         23.496         97             0              0              0            
      5300   810.68924     -32385.45       134.02617     -32251.424      4294.7522      23.496         23.496         97             0              0              0            
      5400   785.06926     -32384.6        129.79058     -32254.809      4675.7783      23.496         23.496         97             0              0              0            
      5500   782.90455     -32386.976      129.4327      -32257.544      3941.3038      23.496         23.496         97             0              0              0            
      5600   802.06613     -32385.315      132.60056     -32252.715      4521.4203      23.496         23.496         97             0              0              0            
      5700   788.31504     -32385.315      130.32718     -32254.988      4037.1409      23.496         23.496         97             0              0              0            
      5800   783.33282     -32386.812      129.5035      -32257.308      4403.9416      23.496         23.496         97             0              0              0            
      5900   771.87595     -32388.264      127.60941     -32260.655      3992.7892      23.496         23.496         97             0              0              0            
      6000   788.53884     -32390.928      130.36418     -32260.564      5200.6607      23.496         23.496         97             0              0              0            
      6100   802.88        -32387.157      132.73511     -32254.422      5271.1247      23.496         23.496         97             0              0              0            
      6200   805.86516     -32386.533      133.22863     -32253.304      4721.6956      23.496         23.496         97             0              0              0            
      6300   782.18836     -32383.07       129.31429     -32253.755      5388.3671      23.496         23.496         97             0              0              0            
      6400   808.95289     -32389.756      133.73911     -32256.017      4786.3934      23.496         23.496         97             0              0              0            
      6500   792.55846     -32388.839      131.02872     -32257.81       5383.1229      23.496         23.496         97             0              0              0            
      6600   818.46044     -32388.33       135.31093     -32253.019      5119.5704      23.496         23.496         97             0              0              0            
      6700   821.00943     -32391.765      135.73234     -32256.033      5007.4759      23.496         23.496         97             0              0              0            
      6800   813.39986     -32391.733      134.47429     -32257.259      5442.7784      23.496         23.496         97             0              0              0            
      6900   807.32704     -32391.284      133.47031     -32257.814      4814.5724      23.496         23.496         97             0              0              0            
      7000   804.72168     -32387.657      133.03959     -32254.617      4508.2334      23.496         23.496         97             0              0              0            
      7100   789.00952     -32383.51       130.44199     -32253.068      4830.9862      23.496         23.496         97             0              0              0            
      7200   821.50282     -32383.593      135.81391     -32247.779      4813.2542      23.496         23.496         97             0              0              0            
      7300   812.64181     -32391.757      134.34897     -32257.408      4354.806       23.496         23.496         97             0              0              0            
      7400   777.03411     -32382.737      128.46217     -32254.275      4498.0293      23.496         23.496         97             0              0              0            
      7500   820.14821     -32389.836      135.58996     -32254.246      4887.2268      23.496         23.496         97             0              0              0            
      7600   782.49041     -32390.164      129.36423     -32260.8        4176.6959      23.496         23.496         97             0              0              0            
      7700   792.06686     -32391.609      130.94744     -32260.661      4490.5409      23.496         23.496         97             0              0              0            
      7800   766.61607     -32393.994      126.73982     -32267.254      4572.7652      23.496         23.496         97             0              0              0            
      7900   786.16689     -32390.591      129.97204     -32260.619      4712.1498      23.496         23.496         97             0              0              0            
      8000   770.45259     -32389.452      127.37409     -32262.078      4206.8129      23.496         23.496         97             0              0              0            
      8100   832.80853     -32390.408      137.68301     -32252.725      3761.865       23.496         23.496         97             0              0              0            
      8200   791.74994     -32385.319      130.89505     -32254.424      4458.1452      23.496         23.496         97             0              0              0            
      8300   793.4532      -32389.897      131.17664     -32258.721      4648.3692      23.496         23.496         97             0              0              0            
      8400   800.74234     -32389.912      132.38171     -32257.53       4239.6373      23.496         23.496         97             0              0              0            
      8500   811.16459     -32387.31       134.10475     -32253.205      4845.2557      23.496         23.496         97             0              0              0            
      8600   814.67957     -32388.567      134.68586     -32253.881      5030.551       23.496         23.496         97             0              0              0            
      8700   785.98949     -32388.388      129.94271     -32258.445      4390.583       23.496         23.496         97             0              0              0            
      8800   809.36334     -32392.499      133.80696     -32258.692      4807.7371      23.496         23.496         97             0              0              0            
      8900   796.43022     -32394.961      131.66881     -32263.292      3662.6665      23.496         23.496         97             0              0              0            
      9000   786.43426     -32392.532      130.01624     -32262.516      4073.8251      23.496         23.496         97             0              0              0            
      9100   776.15915     -32386.433      128.31752     -32258.115      4271.2292      23.496         23.496         97             0              0              0            
      9200   769.51658     -32390.648      127.21935     -32263.428      4531.8084      23.496         23.496         97             0              0              0            
      9300   787.83464     -32393.392      130.24776     -32263.144      5483.4757      23.496         23.496         97             0              0              0            
      9400   810.50275     -32393.237      133.99533     -32259.242      4646.2728      23.496         23.496         97             0              0              0            
      9500   820.31493     -32394.004      135.61752     -32258.386      4414.4187      23.496         23.496         97             0              0              0            
      9600   815.44587     -32389.243      134.81255     -32254.431      3881.1095      23.496         23.496         97             0              0              0            
      9700   798.11189     -32391.625      131.94683     -32259.678      4301.5774      23.496         23.496         97             0              0              0            
      9800   798.48886     -32387.308      132.00915     -32255.299      5489.0159      23.496         23.496         97             0              0              0            
      9900   799.41084     -32392.297      132.16158     -32260.136      4943.9515      23.496         23.496         97             0              0              0            
     10000   792.87918     -32390.432      131.08174     -32259.351      4596.9266      23.496         23.496         97             0              0              0            
Loop time of 942.559 on 1 procs for 10000 steps with 1280 atoms

Performance: 1.833 ns/day, 13.091 hours/ns, 10.609 timesteps/s, 13.580 katom-step/s
99.2% CPU use with 1 MPI tasks x 1 OpenMP threads

MPI task timing breakdown:
Section |  min time  |  avg time  |  max time  |%varavg| %total
---------------------------------------------------------------
Pair    | 940.35     | 940.35     | 940.35     |   0.0 | 99.77
Neigh   | 1.6569     | 1.6569     | 1.6569     |   0.0 |  0.18
Comm    | 0.10088    | 0.10088    | 0.10088    |   0.0 |  0.01
Output  | 0.22793    | 0.22793    | 0.22793    |   0.0 |  0.02
Modify  | 0.18851    | 0.18851    | 0.18851    |   0.0 |  0.02
Other   |            | 0.03345    |            |       |  0.00

Nlocal:           1280 ave        1280 max        1280 min
Histogram: 1 0 0 0 0 0 0 0 0 0
Nghost:           3555 ave        3555 max        3555 min
Histogram: 1 0 0 0 0 0 0 0 0 0
Neighs:              0 ave           0 max           0 min
Histogram: 1 0 0 0 0 0 0 0 0 0
FullNghs:        92178 ave       92178 max       92178 min
Histogram: 1 0 0 0 0 0 0 0 0 0

Total # of neighbors = 92178
Ave neighs/atom = 72.014062
Neighbor list builds = 537
Dangerous builds = 0
unfix           1
unfix           2
write_data      data.NVT
System init for write_data ...
undump          myDump1
reset_timestep  0

# NPT
dump            myDump3 all atom 10000 out.1.lammpstrj
fix             1 all temp/csvr ${temperature} ${temperature2} $(500.0*dt) ${seed}
fix             1 all temp/csvr 800 ${temperature2} $(500.0*dt) ${seed}
fix             1 all temp/csvr 800 800 $(500.0*dt) ${seed}
fix             1 all temp/csvr 800 800 1 ${seed}
fix             1 all temp/csvr 800 800 1 1428
fix             2 all nph z ${pressure} ${pressure} $(500.0*dt)
fix             2 all nph z 1 ${pressure} $(500.0*dt)
fix             2 all nph z 1 1 $(500.0*dt)
fix             2 all nph z 1 1 1
fix             3 all momentum 10000 linear 1 1 1
run             500000000
Per MPI rank memory allocation (min/avg/max) = 3.23 | 3.23 | 3.23 Mbytes
   Step          Temp          PotEng         KinEng         TotEng         Press            Lx             Ly             Lz             Xy             Xz             Yz      
         0   792.87918     -32390.432      131.08174     -32259.351      4600.0079      23.496         23.496         97             0              0              0            
       100   773.27297     -32388.961      127.84037     -32261.12       696.97558      23.496         23.496         99.185165      0              0              0            
       200   753.73311     -32385.884      124.60997     -32261.274      752.09252      23.496         23.496         100.04359      0              0              0            
       300   787.99048     -32390.97       130.27352     -32260.697      1543.2882      23.496         23.496         99.394602      0              0              0            
       400   764.39315     -32384.319      126.37232     -32257.946      1874.455       23.496         23.496         99.156021      0              0              0            
       500   805.95325     -32390.96       133.24319     -32257.717      979.40123      23.496         23.496         99.634777      0              0              0            
       600   777.08553     -32386.642      128.47068     -32258.172      992.17481      23.496         23.496         99.458799      0              0              0            
       700   777.21838     -32385.752      128.49264     -32257.26       1349.5992      23.496         23.496         99.422138      0              0              0            
       800   802.9371      -32389.25       132.74455     -32256.506      2031.1372      23.496         23.496         99.763585      0              0              0            
       900   785.45002     -32384.43       129.85352     -32254.577      1824.1481      23.496         23.496         100.16166      0              0              0            
      1000   787.00208     -32386.215      130.11012     -32256.105      1485.9178      23.496         23.496         100.20467      0              0              0            
      1100   775.35151     -32386.508      128.184       -32258.324      1222.5893      23.496         23.496         100.11288      0              0              0            
      1200   771.23077     -32384.643      127.50274     -32257.141      1424.9053      23.496         23.496         100.31096      0              0              0            
      1300   777.98077     -32386.73       128.61868     -32258.111      1198.5659      23.496         23.496         100.48955      0              0              0            
      1400   771.05505     -32383.502      127.47369     -32256.028      1999.8916      23.496         23.496         100.12625      0              0              0            
      1500   777.11961     -32383.735      128.47631     -32255.258      758.7245       23.496         23.496         100.55895      0              0              0            
      1600   787.32575     -32386.292      130.16363     -32256.129      605.87688      23.496         23.496         100.98273      0              0              0            
      1700   765.34289     -32383.45       126.52934     -32256.921      972.00086      23.496         23.496         101.36359      0              0              0            
      1800   779.43682     -32385.387      128.8594      -32256.528      730.09807      23.496         23.496         101.07292      0              0              0            
      1900   778.35671     -32382.661      128.68083     -32253.981      1914.9369      23.496         23.496         100.3376       0              0              0            
      2000   796.91616     -32381.065      131.74915     -32249.315      1650.2111      23.496         23.496         100.80129      0              0              0            
      2100   759.66594     -32375.359      125.5908      -32249.769      992.60234      23.496         23.496         101.49505      0              0              0            
      2200   817.44981     -32380.594      135.14385     -32245.45       2473.0947      23.496         23.496         101.02505      0              0              0            
      2300   814.60905     -32379.171      134.6742      -32244.496      799.17044      23.496         23.496         101.61296      0              0              0            
      2400   804.41588     -32380.094      132.98903     -32247.105      1036.1471      23.496         23.496         101.55251      0              0              0            
      2500   797.70645     -32378.838      131.8798      -32246.959      1647.3286      23.496         23.496         101.34103      0              0              0            
      2600   781.38564     -32375.595      129.18159     -32246.413      928.07935      23.496         23.496         101.51023      0              0              0            
      2700   816.70175     -32379.286      135.02018     -32244.266      588.24539      23.496         23.496         101.39083      0              0              0            
      2800   840.60617     -32380.315      138.97214     -32241.343      1819.2982      23.496         23.496         101.30691      0              0              0            
      2900   809.16082     -32373.502      133.77348     -32239.728      1038.5747      23.496         23.496         101.6941       0              0              0            
      3000   821.33691     -32376.689      135.78648     -32240.902      2085.7024      23.496         23.496         101.4476       0              0              0            
      3100   826.66412     -32378.849      136.66719     -32242.182      2271.8918      23.496         23.496         100.92691      0              0              0            
      3200   824.86149     -32377.371      136.36917     -32241.002      1755.4222      23.496         23.496         101.37866      0              0              0            
      3300   798.81557     -32373.179      132.06317     -32241.116      2294.5448      23.496         23.496         101.82909      0              0              0            
      3400   813.51242     -32377.349      134.4929      -32242.856      2890.4952      23.496         23.496         100.81468      0              0              0            
      3500   816.33771     -32377.658      134.95999     -32242.698      2030.3115      23.496         23.496         100.99433      0              0              0            
      3600   831.00008     -32377.507      137.38403     -32240.123      1539.6616      23.496         23.496         101.45254      0              0              0            
      3700   841.72187     -32378.412      139.1566      -32239.256      2041.8945      23.496         23.496         101.65348      0              0              0            
      3800   810.2392      -32376.002      133.95176     -32242.051      1959.4872      23.496         23.496         102.0121       0              0              0            
      3900   808.89058     -32378.121      133.7288      -32244.392      1909.6509      23.496         23.496         101.741        0              0              0            
      4000   796.15849     -32375.862      131.62389     -32244.238      2080.3263      23.496         23.496         101.75544      0              0              0            
      4100   802.50511     -32376.988      132.67314     -32244.315      2181.6792      23.496         23.496         101.64213      0              0              0            
      4200   804.27769     -32378.757      132.96618     -32245.791      565.05069      23.496         23.496         102.09812      0              0              0            
      4300   786.77952     -32377.704      130.07332     -32247.631      707.06367      23.496         23.496         102.32422      0              0              0            
      4400   779.17108     -32378.2        128.81547     -32249.385      2391.1358      23.496         23.496         101.55173      0              0              0            
      4500   801.10083     -32383.309      132.44097     -32250.868      1309.0007      23.496         23.496         101.38267      0              0              0            
      4600   795.78117     -32382.726      131.56151     -32251.164      729.86086      23.496         23.496         101.68156      0              0              0            
      4700   796.47226     -32381.194      131.67576     -32249.518      2649.2452      23.496         23.496         100.81329      0              0              0            
      4800   800.35391     -32380.598      132.31749     -32248.28       867.91204      23.496         23.496         101.62929      0              0              0            
      4900   796.46494     -32376.889      131.67455     -32245.214      1240.7947      23.496         23.496         102.37488      0              0              0            
      5000   826.82508     -32379.59       136.6938      -32242.896      1827.2777      23.496         23.496         101.45337      0              0              0            
      5100   812.5411      -32377.004      134.33232     -32242.672      1484.682       23.496         23.496         101.11893      0              0              0            
      5200   829.73111     -32382.371      137.17424     -32245.197      1905.7756      23.496         23.496         101.34615      0              0              0            
      5300   798.31359     -32375.982      131.98018     -32244.002      1367.8908      23.496         23.496         102.24164      0              0              0            
      5400   815.22366     -32380.347      134.77581     -32245.571      2061.5371      23.496         23.496         101.51581      0              0              0            
      5500   788.06185     -32377.645      130.28532     -32247.36       2763.2079      23.496         23.496         101.12958      0              0              0            
      5600   803.2408      -32379.279      132.79476     -32246.484      1902.6373      23.496         23.496         101.91172      0              0              0            
      5700   796.9613      -32379.421      131.75661     -32247.665      1951.9361      23.496         23.496         101.50712      0              0              0            
      5800   806.22536     -32382.822      133.28818     -32249.534      1941.8741      23.496         23.496         100.76736      0              0              0            
      5900   790.13072     -32381.968      130.62735     -32251.34       2246.3997      23.496         23.496         100.957        0              0              0            
      6000   790.44844     -32383.82       130.67988     -32253.14       1256.8583      23.496         23.496         101.01152      0              0              0            
      6100   791.56775     -32382.36       130.86493     -32251.495      2929.2946      23.496         23.496         99.989422      0              0              0            
      6200   819.76492     -32385.548      135.52659     -32250.022      1993.0466      23.496         23.496         100.16457      0              0              0            
      6300   812.73293     -32383.468      134.36404     -32249.104      1629.5228      23.496         23.496         100.92373      0              0              0            
      6400   813.27002     -32383.056      134.45283     -32248.603      1936.4954      23.496         23.496         100.61005      0              0              0            
      6500   818.13811     -32383.982      135.25764     -32248.725      1815.994       23.496         23.496         100.10782      0              0              0            
      6600   812.04038     -32381.454      134.24954     -32247.204      2343.9597      23.496         23.496         100.1383       0              0              0            
      6700   828.1184      -32385.988      136.90762     -32249.08       1574.0614      23.496         23.496         100.81886      0              0              0            
      6800   775.87209     -32378.462      128.27006     -32250.192      1582.1504      23.496         23.496         100.83075      0              0              0            
      6900   828.01417     -32388.491      136.89039     -32251.6        1942.0278      23.496         23.496         100.3417       0              0              0            
      7000   792.93995     -32381.911      131.09179     -32250.82       614.25322      23.496         23.496         101.08621      0              0              0            
      7100   789.48658     -32381.307      130.52086     -32250.786      1021.1817      23.496         23.496         101.01318      0              0              0            
      7200   823.68228     -32383.014      136.17422     -32246.84       739.57173      23.496         23.496         101.03012      0              0              0            
      7300   796.10577     -32379.958      131.61517     -32248.342      819.54556      23.496         23.496         101.50514      0              0              0            
      7400   818.69362     -32383.954      135.34948     -32248.605      1875.3031      23.496         23.496         100.68753      0              0              0            
      7500   822.48179     -32384.356      135.97575     -32248.38       2302.0767      23.496         23.496         99.912252      0              0              0            
      7600   777.27728     -32379.542      128.50238     -32251.04       1332.6523      23.496         23.496         100.35746      0              0              0            
      7700   808.86476     -32385.111      133.72454     -32251.387      1530.3485      23.496         23.496         100.30853      0              0              0            
      7800   799.35176     -32388.147      132.15181     -32255.995      1492.4216      23.496         23.496         100.63562      0              0              0            
      7900   786.08712     -32384.995      129.95885     -32255.037      1594.297       23.496         23.496         100.84315      0              0              0            
      8000   778.35077     -32386.283      128.67985     -32257.603      1589.2743      23.496         23.496         100.87144      0              0              0            
      8100   787.67405     -32382.911      130.22121     -32252.69       1359.6168      23.496         23.496         100.97636      0              0              0            
      8200   808.38878     -32386.811      133.64584     -32253.165      991.63831      23.496         23.496         100.90929      0              0              0            
      8300   780.35115     -32383.469      129.01056     -32254.459      1415.1449      23.496         23.496         101.04258      0              0              0            
      8400   790.3441      -32381.755      130.66263     -32251.092      793.78287      23.496         23.496         101.43884      0              0              0            
      8500   793.19626     -32381.274      131.13416     -32250.14       1541.9255      23.496         23.496         101.3049       0              0              0            
      8600   811.37817     -32383.771      134.14006     -32249.63       1637.6192      23.496         23.496         101.08148      0              0              0            
      8700   790.6295      -32382.178      130.70981     -32251.468      1884.1925      23.496         23.496         101.09275      0              0              0            
      8800   806.64223     -32383.665      133.3571      -32250.308      620.1655       23.496         23.496         101.54139      0              0              0            
      8900   797.26682     -32384.912      131.80712     -32253.105      1326.8569      23.496         23.496         101.2347       0              0              0            
      9000   782.06838     -32383.791      129.29446     -32254.497      956.89676      23.496         23.496         101.39101      0              0              0            
      9100   808.81451     -32387.63       133.71623     -32253.914      1997.8442      23.496         23.496         101.12454      0              0              0            
      9200   778.93668     -32385.42       128.77671     -32256.643      1160.9892      23.496         23.496         101.43717      0              0              0            
      9300   783.61965     -32385.457      129.55092     -32255.906      1372.9056      23.496         23.496         101.5579       0              0              0            
      9400   777.72395     -32383.876      128.57622     -32255.3        464.54978      23.496         23.496         101.96738      0              0              0            
      9500   813.51579     -32389.546      134.49346     -32255.053      1010.5491      23.496         23.496         100.98213      0              0              0            
      9600   800.16638     -32385.101      132.28649     -32252.815      1926.7869      23.496         23.496         100.63136      0              0              0            
      9700   795.68911     -32385.386      131.54629     -32253.84      -262.1947       23.496         23.496         102.1933       0              0              0            
      9800   781.17567     -32382.213      129.14687     -32253.066      762.30032      23.496         23.496         102.13556      0              0              0            
      9900   777.60958     -32382.046      128.55731     -32253.489      1085.7775      23.496         23.496         101.71145      0              0              0            
     10000   792.40604     -32383.573      131.00352     -32252.569      1318.75        23.496         23.496         101.32199      0              0              0            
     10100   770.3966      -32382.598      127.36484     -32255.233      1776.9412      23.496         23.496         101.28936      0              0              0            
     10200   799.67763     -32384.3        132.20568     -32252.095      2442.6583      23.496         23.496         101.32908      0              0              0            
     10300   763.25434     -32380.056      126.18405     -32253.872      1820.5028      23.496         23.496         101.40064      0              0              0            
     10400   797.72549     -32384.05       131.88295     -32252.167      1103.4309      23.496         23.496         101.76755      0              0              0            
     10500   789.52385     -32383.046      130.52702     -32252.519      1384.0637      23.496         23.496         101.27176      0              0              0            
     10600   820.32011     -32387.436      135.61838     -32251.818      2027.006       23.496         23.496         100.91023      0              0              0            
     10700   769.50285     -32378.339      127.21708     -32251.122      1130.0169      23.496         23.496         101.44184      0              0              0            
     10800   785.05409     -32380.408      129.78807     -32250.62       182.11438      23.496         23.496         101.8523       0              0              0            
     10900   801.48685     -32383.075      132.50479     -32250.57       402.62404      23.496         23.496         101.57856      0              0              0            
     11000   806.44924     -32385.204      133.32519     -32251.879      2223.2576      23.496         23.496         101.03825      0              0              0            
     11100   797.62702     -32385.259      131.86667     -32253.392      769.06854      23.496         23.496         101.44038      0              0              0            
     11200   772.7389      -32380.894      127.75207     -32253.142      756.21556      23.496         23.496         101.62006      0              0              0            
     11300   777.71729     -32382.696      128.57512     -32254.121      1121.7338      23.496         23.496         101.66224      0              0              0            
     11400   762.36379     -32380.445      126.03682     -32254.408      1058.3017      23.496         23.496         101.68965      0              0              0            
     11500   798.22321     -32384.581      131.96523     -32252.616      891.29923      23.496         23.496         101.80471      0              0              0            
     11600   784.62332     -32381.061      129.71685     -32251.345      1249.877       23.496         23.496         101.93498      0              0              0            
     11700   777.50587     -32379.536      128.54017     -32250.995      1608.5554      23.496         23.496         101.72413      0              0              0            
     11800   778.56192     -32381.677      128.71476     -32252.962      2230.6526      23.496         23.496         101.38374      0              0              0            
     11900   765.92745     -32381.206      126.62598     -32254.58       1330.9745      23.496         23.496         102.0816       0              0              0            
     12000   783.36691     -32384.639      129.50914     -32255.13       1574.0533      23.496         23.496         102.20445      0              0              0            
     12100   817.13159     -32388.045      135.09124     -32252.954      1988.0034      23.496         23.496         101.13244      0              0              0            
     12200   810.53511     -32385.32       134.00068     -32251.319      1555.8865      23.496         23.496         101.02789      0              0              0            
     12300   781.65893     -32381.289      129.22677     -32252.062      304.49995      23.496         23.496         102.25466      0              0              0            
     12400   784.06766     -32380.48       129.62499     -32250.855      1393.0428      23.496         23.496         102.31106      0              0              0            
     12500   805.45151     -32383.314      133.16024     -32250.153      813.20046      23.496         23.496         102.25146      0              0              0            
     12600   780.83917     -32376.106      129.09124     -32247.015      1928.0231      23.496         23.496         102.4106       0              0              0            
     12700   792.45327     -32380.985      131.01133     -32249.974      1254.5856      23.496         23.496         102.35992      0              0              0            
     12800   824.69862     -32383.996      136.34225     -32247.654      1647.2462      23.496         23.496         101.89637      0              0              0            
     12900   794.6966      -32379.842      131.3822      -32248.46       470.38797      23.496         23.496         102.70373      0              0              0            
     13000   792.43931     -32378.824      131.00902     -32247.815      1823.1121      23.496         23.496         102.51363      0              0              0            
     13100   778.27941     -32379.181      128.66805     -32250.513      719.49154      23.496         23.496         102.45358      0              0              0            
     13200   794.36577     -32381.146      131.32751     -32249.818      723.11162      23.496         23.496         102.86056      0              0              0            
     13300   760.90546     -32378.114      125.79573     -32252.318      1118.6053      23.496         23.496         102.71327      0              0              0            
     13400   788.96838     -32382.334      130.43519     -32251.898      2059.5391      23.496         23.496         101.97241      0              0              0            
     13500   794.30265     -32382.101      131.31707     -32250.784      1399.7731      23.496         23.496         102.20085      0              0              0            
     13600   778.24042     -32378.042      128.6616      -32249.381      1344.7958      23.496         23.496         101.96276      0              0              0            
     13700   781.84142     -32381.146      129.25694     -32251.889      1564.4066      23.496         23.496         101.79396      0              0              0            
     13800   762.2769      -32378.678      126.02246     -32252.656      1804.313       23.496         23.496         102.23838      0              0              0            
     13900   782.15698     -32380.92       129.30911     -32251.611      123.65824      23.496         23.496         102.63963      0              0              0            
     14000   776.11031     -32379.311      128.30945     -32251.001      2332.2322      23.496         23.496         101.78896      0              0              0            
     14100   791.56677     -32380.607      130.86477     -32249.743      1496.001       23.496         23.496         102.47793      0              0              0            
     14200   783.30602     -32379.979      129.49907     -32250.48       1086.2894      23.496         23.496         102.64638      0              0              0            
     14300   793.89235     -32381.768      131.24924     -32250.518      1089.2806      23.496         23.496         101.95759      0              0              0            
     14400   816.64039     -32382.08       135.01003     -32247.07       909.2819       23.496         23.496         101.67473      0              0              0            
     14500   812.33224     -32382.747      134.29779     -32248.449      1881.7876      23.496         23.496         101.26385      0              0              0            
     14600   813.23229     -32384.886      134.44659     -32250.439      1033.8091      23.496         23.496         101.43438      0              0              0            
     14700   796.51782     -32380.79       131.68329     -32249.107      1418.9011      23.496         23.496         101.27215      0              0              0            
     14800   799.24098     -32380.988      132.1335      -32248.854      1629.1103      23.496         23.496         101.55483      0              0              0            
     14900   798.18812     -32382.435      131.95943     -32250.475      819.46147      23.496         23.496         101.74996      0              0              0            
     15000   804.20398     -32384.135      132.954       -32251.181      1088.3154      23.496         23.496         101.19954      0              0              0            
     15100   801.89534     -32385.1        132.57232     -32252.528      1469.1193      23.496         23.496         101.01217      0              0              0            
     15200   790.61894     -32382.472      130.70807     -32251.764      927.40853      23.496         23.496         101.90508      0              0              0            
     15300   778.45949     -32381.97       128.69782     -32253.272      592.53986      23.496         23.496         101.94866      0              0              0            
     15400   797.61335     -32384.061      131.86441     -32252.196      1003.2911      23.496         23.496         101.40772      0              0              0            
     15500   804.42374     -32386.9        132.99033     -32253.91       718.57792      23.496         23.496         101.53288      0              0              0            
     15600   793.12719     -32384.675      131.12274     -32253.552      1346.8782      23.496         23.496         101.87752      0              0              0            
     15700   781.12284     -32384.819      129.13814     -32255.68       819.78194      23.496         23.496         101.96845      0              0              0            
     15800   800.50043     -32386.739      132.34171     -32254.397      2601.2579      23.496         23.496         101.13329      0              0              0            
     15900   806.63153     -32387.064      133.35533     -32253.709      1776.4368      23.496         23.496         101.31338      0              0              0            
     16000   778.85046     -32383.847      128.76246     -32255.085      1474.5687      23.496         23.496         101.22855      0              0              0            
     16100   795.49602     -32387.265      131.51436     -32255.75       418.09051      23.496         23.496         101.35559      0              0              0            
     16200   773.08436     -32384.097      127.80919     -32256.288      645.14268      23.496         23.496         101.4158       0              0              0            
     16300   792.0698      -32386.039      130.94793     -32255.091      1339.0865      23.496         23.496         101.12734      0              0              0            
     16400   803.72519     -32385.815      132.87484     -32252.94       1045.5104      23.496         23.496         101.36298      0              0              0            
     16500   799.44666     -32382.471      132.1675      -32250.304      1694.6314      23.496         23.496         101.13205      0              0              0            
     16600   797.24229     -32381.019      131.80307     -32249.216      1622.7175      23.496         23.496         100.80607      0              0              0            
     16700   789.10299     -32379.828      130.45745     -32249.371      1618.2557      23.496         23.496         101.23844      0              0              0            
     16800   791.82608     -32379.078      130.90764     -32248.171     -13.505671      23.496         23.496         102.26365      0              0              0            
     16900   810.56023     -32385.094      134.00484     -32251.089      1802.961       23.496         23.496         100.84844      0              0              0            
     17000   805.0459      -32385.341      133.09319     -32252.248      2132.9197      23.496         23.496         100.30887      0              0              0            
     17100   824.14718     -32385.129      136.25108     -32248.878      1718.6918      23.496         23.496         100.9661       0              0              0            
     17200   764.48793     -32374.832      126.38799     -32248.444      771.01195      23.496         23.496         101.35598      0              0              0            
     17300   819.30986     -32383.361      135.45136     -32247.91       1465.7839      23.496         23.496         100.78078      0              0              0            
     17400   824.05902     -32385.956      136.23651     -32249.719      1723.1989      23.496         23.496         100.44918      0              0              0            
     17500   830.74465     -32387.62       137.3418      -32250.278      2660.1176      23.496         23.496         100.25981      0              0              0            
     17600   815.8003      -32388.209      134.87115     -32253.338      1927.1916      23.496         23.496         100.63651      0              0              0            
     17700   812.31192     -32385.197      134.29443     -32250.903     -95.534588      23.496         23.496         101.15718      0              0              0            
     17800   804.33917     -32386.177      132.97635     -32253.2        1295.0269      23.496         23.496         100.30743      0              0              0            
     17900   800.28447     -32385.945      132.30601     -32253.639      1510.554       23.496         23.496         100.20385      0              0              0            
     18000   797.91118     -32386.089      131.91365     -32254.175      1170.7707      23.496         23.496         101.01541      0              0              0            
     18100   798.10992     -32385.002      131.9465      -32253.056      416.64928      23.496         23.496         101.57991      0              0              0            
     18200   793.75926     -32386.892      131.22724     -32255.665      1735.3552      23.496         23.496         100.83939      0              0              0            
     18300   772.25739     -32386.576      127.67247     -32258.904      528.60461      23.496         23.496         100.90756      0              0              0            
     18400   787.31782     -32388.541      130.16232     -32258.379      979.62853      23.496         23.496         100.69254      0              0              0            
     18500   794.52055     -32389.146      131.3531      -32257.793      876.05644      23.496         23.496         100.99045      0              0              0            
     18600   788.71782     -32388.092      130.39377     -32257.698      1145.0807      23.496         23.496         100.90252      0              0              0            
     18700   793.50842     -32387.793      131.18577     -32256.608      1240.2942      23.496         23.496         100.58994      0              0              0            
     18800   804.63282     -32387.851      133.0249      -32254.826      1923.7338      23.496         23.496         100.50783      0              0              0            
     18900   784.45478     -32385.959      129.68899     -32256.27       556.00314      23.496         23.496         100.4492       0              0              0            
     19000   791.98366     -32385.968      130.93369     -32255.034      2406.7298      23.496         23.496         100.21122      0              0              0            
     19100   783.20964     -32385.719      129.48313     -32256.236      1680.6159      23.496         23.496         100.50744      0              0              0            
     19200   792.83226     -32385.865      131.07398     -32254.791      1709.3673      23.496         23.496         100.18687      0              0              0            
     19300   800.45526     -32387.961      132.33425     -32255.627      2113.469       23.496         23.496         100.13462      0              0              0            
     19400   782.82158     -32386.348      129.41898     -32256.929      1275.1167      23.496         23.496         100.81087      0              0              0            
     19500   814.7927      -32393.37       134.70456     -32258.666      1609.3858      23.496         23.496         100.59808      0              0              0            
     19600   762.74612     -32384.299      126.10003     -32258.199      2195.2188      23.496         23.496         100.59286      0              0              0            
     19700   788.34114     -32388.278      130.33149     -32257.947      370.25328      23.496         23.496         101.75426      0              0              0            
     19800   786.74638     -32387.835      130.06784     -32257.767      2059.8257      23.496         23.496         100.75189      0              0              0            
     19900   782.06757     -32387.285      129.29432     -32257.991      1785.7112      23.496         23.496         100.36666      0              0              0            
     20000   759.64697     -32382.418      125.58767     -32256.831      2451.569       23.496         23.496         100.32551      0              0              0            
     20100   792.95946     -32387.591      131.09501     -32256.496      1041.8862      23.496         23.496         100.74622      0              0              0            
     20200   796.89601     -32388.323      131.74582     -32256.577      331.51447      23.496         23.496         100.9023       0              0              0            
     20300   805.03647     -32390.016      133.09163     -32256.925      1009.8968      23.496         23.496         100.14557      0              0              0            
     20400   783.86433     -32388.625      129.59137     -32259.034      1459.1349      23.496         23.496         99.949186      0              0              0            
     20500   781.88937     -32387.794      129.26486     -32258.529      1841.0623      23.496         23.496         100.356        0              0              0            
     20600   804.39369     -32391.358      132.98536     -32258.372      1434.2995      23.496         23.496         100.40558      0              0              0            
     20700   789.89524     -32389.174      130.58842     -32258.586      1318.6765      23.496         23.496         100.62462      0              0              0            
     20800   788.80285     -32390.395      130.40783     -32259.987      547.94295      23.496         23.496         101.13521      0              0              0            
     20900   799.09326     -32388.339      132.10908     -32256.23       1784.0329      23.496         23.496         100.66327      0              0              0            
     21000   777.36783     -32381.467      128.51735     -32252.95       1216.6494      23.496         23.496         101.15435      0              0              0            
     21100   788.19049     -32383.367      130.30659     -32253.06      -203.86248      23.496         23.496         101.92201      0              0              0            
     21200   793.21296     -32386.298      131.13692     -32255.161      1917.2339      23.496         23.496         101.00066      0              0              0            
     21300   796.24861     -32388.166      131.63879     -32256.527      2489.0455      23.496         23.496         100.82387      0              0              0            
     21400   808.54275     -32387.166      133.6713      -32253.495      2133.9912      23.496         23.496         101.41837      0              0              0            
     21500   793.42349     -32385.48       131.17173     -32254.308      1232.6034      23.496         23.496         101.10543      0              0              0            
     21600   784.97208     -32383.515      129.77451     -32253.74       1542.8728      23.496         23.496         100.91151      0              0              0            
     21700   815.42108     -32387.435      134.80845     -32252.627      1702.9021      23.496         23.496         101.11058      0              0              0            
     21800   780.44817     -32383.797      129.0266      -32254.771      554.53138      23.496         23.496         101.36354      0              0              0            
     21900   801.1308      -32389.014      132.44593     -32256.568      1571.4466      23.496         23.496         100.32016      0              0              0            
     22000   799.98368     -32391.139      132.25628     -32258.883      1145.6463      23.496         23.496         100.39077      0              0              0            
     22100   777.82193     -32387.174      128.59242     -32258.582      485.10437      23.496         23.496         101.13352      0              0              0            
     22200   782.71575     -32385.09       129.40148     -32255.688      1523.6303      23.496         23.496         101.11029      0              0              0            
     22300   789.97789     -32384.117      130.60209     -32253.514      1792.5577      23.496         23.496         101.05875      0              0              0            
     22400   805.49135     -32386.658      133.16683     -32253.492      1724.3576      23.496         23.496         101.14082      0              0              0            
     22500   790.78146     -32386.295      130.73494     -32255.561      2800.4488      23.496         23.496         100.85235      0              0              0            
     22600   781.1133      -32388.797      129.13656     -32259.661      1423.3255      23.496         23.496         101.29434      0              0              0            
     22700   775.18842     -32386.389      128.15704     -32258.232      1175.2969      23.496         23.496         101.15945      0              0              0            
     22800   801.51886     -32387.939      132.51008     -32255.429      1724.8456      23.496         23.496         101.23826      0              0              0            
     22900   791.50399     -32386.359      130.85439     -32255.504      966.01976      23.496         23.496         102.10099      0              0              0            
     23000   773.62224     -32384          127.89811     -32256.102      3037.7568      23.496         23.496         101.48461      0              0              0            
     23100   770.13719     -32381.679      127.32195     -32254.357      1494.9113      23.496         23.496         101.54579      0              0              0            
     23200   793.87574     -32383.279      131.2465      -32252.033      808.02088      23.496         23.496         102.15171      0              0              0            
     23300   813.98348     -32384.904      134.57078     -32250.333      2045.7288      23.496         23.496         101.06361      0              0              0            
     23400   819.62878     -32384.669      135.50408     -32249.164      1634.3666      23.496         23.496         101.14007      0              0              0            
     23500   817.05905     -32384.258      135.07925     -32249.178      1907.6076      23.496         23.496         101.43006      0              0              0            
     23600   819.15249     -32381.507      135.42534     -32246.082      1960.6676      23.496         23.496         101.69749      0              0              0            
     23700   825.82997     -32381.056      136.52929     -32244.527      1614.6298      23.496         23.496         101.59759      0              0              0            
     23800   812.6086      -32378.268      134.34348     -32243.925      400.51112      23.496         23.496         101.99256      0              0              0            
     23900   834.9659      -32381.914      138.03967     -32243.874      975.80717      23.496         23.496         101.42849      0              0              0            
     24000   800.9225      -32378.966      132.41149     -32246.555      1860.2303      23.496         23.496         100.51421      0              0              0            
     24100   820.72476     -32379.608      135.68528     -32243.922      1220.2531      23.496         23.496         100.55347      0              0              0            
     24200   819.08755     -32382.217      135.4146      -32246.802      1556.8729      23.496         23.496         100.71292      0              0              0            
     24300   800.16283     -32378.766      132.2859      -32246.48       1915.7831      23.496         23.496         100.70092      0              0              0            
     24400   794.0634      -32380.612      131.27752     -32249.335      415.71513      23.496         23.496         100.53245      0              0              0            
     24500   812.49116     -32384.18       134.32407     -32249.856      1719.5943      23.496         23.496         99.915093      0              0              0            
     24600   797.41434     -32384.13       131.83151     -32252.299      592.3087       23.496         23.496         100.60925      0              0              0            
     24700   813.77677     -32386.464      134.53661     -32251.928      1355.5097      23.496         23.496         100.36775      0              0              0            
     24800   790.21331     -32383.606      130.64101     -32252.965      1865.0739      23.496         23.496         100.13479      0              0              0            
     24900   797.75626     -32385.22       131.88804     -32253.332      1934.021       23.496         23.496         100.34063      0              0              0            
     25000   817.01064     -32389.189      135.07124     -32254.118      1848.277       23.496         23.496         100.57855      0              0              0            
     25100   794.21474     -32388.5        131.30254     -32257.197      2402.7646      23.496         23.496         100.31146      0              0              0            
     25200   781.29219     -32385.545      129.16614     -32256.379      2260.1162      23.496         23.496         100.55784      0              0              0            
     25300   799.88431     -32387.758      132.23985     -32255.518      660.31109      23.496         23.496         100.25663      0              0              0            
     25400   785.46765     -32383.511      129.85644     -32253.655      2327.949       23.496         23.496         99.880189      0              0              0            
     25500   803.03762     -32384.608      132.76117     -32251.847      1406.1771      23.496         23.496         100.53708      0              0              0            
     25600   792.05535     -32380.967      130.94554     -32250.021      1891.2756      23.496         23.496         100.64289      0              0              0            
     25700   799.41196     -32383.417      132.16176     -32251.255      1977.2537      23.496         23.496         100.51979      0              0              0            
     25800   790.08789     -32382.74       130.62027     -32252.12       2026.5791      23.496         23.496         100.78656      0              0              0            
     25900   798.2603      -32383.265      131.97137     -32251.294      1196.3387      23.496         23.496         101.20933      0              0              0            
     26000   795.90706     -32383.278      131.58232     -32251.696      2012.4211      23.496         23.496         99.966746      0              0              0            
     26100   793.75792     -32383.95       131.22702     -32252.723      3128.4734      23.496         23.496         99.888128      0              0              0            
     26200   797.06856     -32384.273      131.77434     -32252.498      1138.3555      23.496         23.496         101.06855      0              0              0            
     26300   793.7727      -32383.172      131.22946     -32251.942      768.12793      23.496         23.496         100.70691      0              0              0            
     26400   801.36284     -32385.612      132.48429     -32253.127      2091.6386      23.496         23.496         100.39647      0              0              0            
     26500   783.49182     -32383.406      129.52979     -32253.877      1255.5085      23.496         23.496         101.0952       0              0              0            
     26600   791.56762     -32382.491      130.86491     -32251.626      2028.9887      23.496         23.496         100.8507       0              0              0            
     26700   801.21762     -32386.016      132.46028     -32253.555      1448.8546      23.496         23.496         100.84         0              0              0            
     26800   810.94424     -32386.09       134.06832     -32252.021      512.49356      23.496         23.496         101.08425      0              0              0            
     26900   792.17135     -32380.712      130.96472     -32249.747      2389.1084      23.496         23.496         100.91136      0              0              0            
     27000   797.63025     -32382.334      131.8672      -32250.467      432.74724      23.496         23.496         101.71919      0              0              0            
     27100   791.51982     -32383.795      130.85701     -32252.938      2376.3035      23.496         23.496         101.46279      0              0              0            
     27200   833.81069     -32390.323      137.84869     -32252.474      2794.5235      23.496         23.496         100.66934      0              0              0            
     27300   829.59534     -32390.087      137.15179     -32252.935      896.13965      23.496         23.496         101.34073      0              0              0            
     27400   770.18497     -32382.174      127.32985     -32254.844      918.40416      23.496         23.496         101.44031      0              0              0            
     27500   808.13314     -32387.887      133.60358     -32254.283      1119.2073      23.496         23.496         101.00877      0              0              0            
     27600   811.57801     -32387.914      134.1731      -32253.74       1363.7525      23.496         23.496         101.22082      0              0              0            
     27700   788.76865     -32384.072      130.40217     -32253.67       1369.1567      23.496         23.496         101.05432      0              0              0            
     27800   805.91147     -32386.137      133.23629     -32252.901      1813.9238      23.496         23.496         100.83693      0              0              0            
     27900   817.71147     -32385.768      135.18711     -32250.581      1161.4888      23.496         23.496         101.1035       0              0              0            
     28000   802.71507     -32382.965      132.70785     -32250.257      393.3492       23.496         23.496         101.77289      0              0              0            
     28100   816.298       -32384.469      134.95343     -32249.516      1319.3822      23.496         23.496         101.48728      0              0              0            
     28200   793.63385     -32378.726      131.2065      -32247.52       2316.2574      23.496         23.496         100.97379      0              0              0            
     28300   832.34027     -32383.121      137.60559     -32245.515      1077.8634      23.496         23.496         101.72193      0              0              0            
     28400   816.27399     -32383.499      134.94946     -32248.549      2080.8421      23.496         23.496         101.16728      0              0              0            
     28500   822.46298     -32385.932      135.97264     -32249.959      2379.2609      23.496         23.496         100.13954      0              0              0            
     28600   821.71185     -32387.822      135.84846     -32251.974      959.34195      23.496         23.496         100.50166      0              0              0            
     28700   813.50248     -32386.124      134.49126     -32251.633      2364.2182      23.496         23.496         100.55778      0              0              0            
     28800   805.62672     -32384.987      133.18921     -32251.798      1756.0774      23.496         23.496         100.45486      0              0              0            
     28900   796.49755     -32384.768      131.67994     -32253.088      544.03455      23.496         23.496         100.81881      0              0              0            
     29000   791.70965     -32384.256      130.88839     -32253.367      1225.3969      23.496         23.496         100.65913      0              0              0            
     29100   827.22391     -32385.099      136.75974     -32248.339      2152.7681      23.496         23.496         100.58692      0              0              0            
     29200   805.16961     -32382.405      133.11364     -32249.291      1077.4876      23.496         23.496         101.1605       0              0              0            
     29300   833.10327     -32388.096      137.73174     -32250.364      1896.2549      23.496         23.496         100.59955      0              0              0            
     29400   769.82492     -32379.896      127.27032     -32252.626      2473.9516      23.496         23.496         100.27879      0              0              0            
     29500   773.13117     -32379.621      127.81693     -32251.804      1138.0748      23.496         23.496         101.31155      0              0              0            
     29600   830.41878     -32388.766      137.28793     -32251.478      797.41189      23.496         23.496         101.34895      0              0              0            
     29700   795.63611     -32382.067      131.53753     -32250.53       2424.0038      23.496         23.496         100.69071      0              0              0            
     29800   816.22851     -32383.714      134.94194     -32248.772      2219.7072      23.496         23.496         101.05487      0              0              0            
     29900   774.83553     -32379.953      128.0987      -32251.854      1675.3331      23.496         23.496         101.71833      0              0              0            
     30000   782.44018     -32381.341      129.35592     -32251.985      643.73917      23.496         23.496         101.33706      0              0              0            
     30100   828.51637     -32388.371      136.97341     -32251.397      2059.3156      23.496         23.496         100.55191      0              0              0            
     30200   779.34228     -32381.183      128.84377     -32252.34       967.62592      23.496         23.496         101.23484      0              0              0            
     30300   788.9496      -32383.186      130.43209     -32252.754      1748.6076      23.496         23.496         100.84669      0              0              0            
     30400   789.68659     -32384.456      130.55393     -32253.902      1788.4785      23.496         23.496         100.61439      0              0              0            
     30500   772.66165     -32382.786      127.7393      -32255.047      687.16139      23.496         23.496         101.23719      0              0              0            
     30600   800.08035     -32387.551      132.27226     -32255.279      832.97053      23.496         23.496         101.37175      0              0              0            
     30700   753.47585     -32379.198      124.56743     -32254.631      1483.2316      23.496         23.496         101.59945      0              0              0            
     30800   804.98638     -32386.728      133.08335     -32253.645      677.27509      23.496         23.496         101.83924      0              0              0            
     30900   793.24811     -32382.51       131.14273     -32251.367      1904.737       23.496         23.496         101.24515      0              0              0            
     31000   814.56809     -32383.744      134.66743     -32249.076      2517.4876      23.496         23.496         101.11715      0              0              0            
     31100   816.75886     -32385.742      135.02962     -32250.712      1302.4194      23.496         23.496         101.466        0              0              0            
     31200   804.60629     -32381.789      133.02051     -32248.769      2965.3402      23.496         23.496         100.83764      0              0              0            
     31300   809.64351     -32382.761      133.85328     -32248.908      1212.3912      23.496         23.496         101.32296      0              0              0            
     31400   834.83848     -32387.582      138.01861     -32249.563      2777.5514      23.496         23.496         100.90772      0              0              0            
     31500   784.14353     -32378.366      129.63753     -32248.729      1934.4987      23.496         23.496         100.9494       0              0              0            
     31600   819.13265     -32384.923      135.42206     -32249.501      750.35218      23.496         23.496         101.31148      0              0              0            
     31700   807.37976     -32383.803      133.47903     -32250.324      1837.8656      23.496         23.496         101.05444      0              0              0            
     31800   802.87602     -32382.931      132.73445     -32250.196      2277.6384      23.496         23.496         100.54466      0              0              0            
[...]
   1302600   782.68679     -32421.802      129.3967      -32292.405      2105.1513      23.496         23.496         98.461024      0              0              0            
   1302700   794.51588     -32420.874      131.35233     -32289.522      2649.4618      23.496         23.496         98.029112      0              0              0            
   1302800   793.1335      -32418.595      131.12378     -32287.471      2892.1322      23.496         23.496         98.308559      0              0              0            
   1302900   803.32611     -32421.307      132.80887     -32288.498      2146.5949      23.496         23.496         98.704039      0              0              0            
   1303000   787.90547     -32422.157      130.25947     -32291.898      2779.5571      23.496         23.496         98.1734        0              0              0            
   1303100   794.39217     -32423.546      131.33187     -32292.214      2841.2423      23.496         23.496         97.935722      0              0              0            
   1303200   787.66717     -32420.812      130.22007     -32290.592      1498.1571      23.496         23.496         98.823294      0              0              0            
   1303300   799.38126     -32422.19       132.15669     -32290.033      3152.8949      23.496         23.496         98.215391      0              0              0            
   1303400   804.66076     -32422.36       133.02952     -32289.33       2434.7002      23.496         23.496         98.058913      0              0              0            
   1303500   790.61896     -32419.813      130.70807     -32289.105      1873.6833      23.496         23.496         98.480631      0              0              0            
   1303600   784.82314     -32419.647      129.74988     -32289.897      2331.6996      23.496         23.496         98.174797      0              0              0            
   1303700   793.91988     -32420.035      131.25379     -32288.781      2946.0951      23.496         23.496         98.178531      0              0              0            
   1303800   771.81362     -32416.783      127.5991      -32289.184      2284.7806      23.496         23.496         98.711495      0              0              0            
   1303900   802.07172     -32421.485      132.60148     -32288.884      1377.493       23.496         23.496         98.82156       0              0              0            
   1304000   794.51451     -32421.219      131.3521      -32289.867      2219.5728      23.496         23.496         98.854686      0              0              0            
   1304100   771.3525      -32414.987      127.52287     -32287.464      2995.8494      23.496         23.496         98.754304      0              0              0            
   1304200   818.06904     -32423.106      135.24622     -32287.86       1860.5955      23.496         23.496         98.864849      0              0              0            
   1304300   809.64491     -32418.009      133.85351     -32284.155      2740.6459      23.496         23.496         98.762632      0              0              0            
   1304400   783.94957     -32416.113      129.60546     -32286.508      3091.9038      23.496         23.496         98.738875      0              0              0            
   1304500   808.92286     -32419.175      133.73414     -32285.44       2767.0526      23.496         23.496         98.756134      0              0              0            
   1304600   806.30784     -32417.916      133.30182     -32284.614      3170.7691      23.496         23.496         98.675765      0              0              0            
   1304700   805.04166     -32415.921      133.09249     -32282.828      2787.6213      23.496         23.496         98.946375      0              0              0            
   1304800   843.2233      -32422.553      139.40482     -32283.148      1673.9665      23.496         23.496         99.361843      0              0              0            
   1304900   825.7705      -32420.454      136.51946     -32283.934      2411.2019      23.496         23.496         98.989927      0              0              0            
   1305000   795.20209     -32414.229      131.46577     -32282.763      2077.4269      23.496         23.496         99.079256      0              0              0            
   1305100   842.5743      -32420.396      139.29752     -32281.099      1667.7251      23.496         23.496         98.937191      0              0              0            
   1305200   828.23764     -32419.73       136.92733     -32282.803      2237.5284      23.496         23.496         98.700902      0              0              0            
   1305300   817.46591     -32417.139      135.14651     -32281.992      1665.8003      23.496         23.496         99.043572      0              0              0            
   1305400   842.59407     -32419.91       139.30079     -32280.609      3351.9249      23.496         23.496         98.692386      0              0              0            
   1305500   835.71303     -32416.831      138.16319     -32278.668      1955.6328      23.496         23.496         99.079412      0              0              0            
   1305600   815.20755     -32416.415      134.77315     -32281.642      2717.4792      23.496         23.496         98.684839      0              0              0            
   1305700   805.80047     -32420.529      133.21794     -32287.311      3301.9392      23.496         23.496         98.1215        0              0              0            
   1305800   774.70398     -32420.329      128.07695     -32292.252      1737.6814      23.496         23.496         98.501502      0              0              0            
   1305900   804.88942     -32423.99       133.06732     -32290.923      2706.0478      23.496         23.496         98.428071      0              0              0            
   1306000   812.18116     -32423.513      134.27281     -32289.241      3479.6795      23.496         23.496         98.054429      0              0              0            
   1306100   792.90804     -32422.905      131.08651     -32291.818      1293.5959      23.496         23.496         98.553491      0              0              0            
   1306200   798.41966     -32426.8        131.99771     -32294.802      2129.3979      23.496         23.496         98.492295      0              0              0            
   1306300   791.43953     -32424.828      130.84373     -32293.984      2363.4452      23.496         23.496         98.132244      0              0              0            
   1306400   795.10434     -32423.604      131.44961     -32292.154      2275.1186      23.496         23.496         98.288062      0              0              0            
   1306500   792.30226     -32422.246      130.98636     -32291.26       2791.5763      23.496         23.496         98.011998      0              0              0            
   1306600   788.53963     -32423.498      130.36431     -32293.134      1724.1312      23.496         23.496         97.881472      0              0              0            
   1306700   797.89028     -32421.413      131.91019     -32289.503      2059.1405      23.496         23.496         98.067227      0              0              0            
   1306800   811.77312     -32424.695      134.20536     -32290.489      2592.7518      23.496         23.496         98.139205      0              0              0            
   1306900   777.99387     -32416.261      128.62084     -32287.64       3183.4494      23.496         23.496         98.143926      0              0              0            
   1307000   801.20829     -32416.36       132.45874     -32283.901      2064.6396      23.496         23.496         98.394599      0              0              0            
   1307100   834.81624     -32422.275      138.01493     -32284.26       3299.4158      23.496         23.496         97.587596      0              0              0            
   1307200   812.35969     -32419.6        134.30233     -32285.297      2447.0424      23.496         23.496         97.892837      0              0              0            
   1307300   785.02645     -32414.237      129.7835      -32284.453      3338.762       23.496         23.496         97.972143      0              0              0            
   1307400   810.5483      -32419.599      134.00286     -32285.596      1018.9754      23.496         23.496         99.187213      0              0              0            
   1307500   798.04287     -32417.85       131.93542     -32285.914      2291.7536      23.496         23.496         98.599774      0              0              0            
   1307600   795.16919     -32416.782      131.46033     -32285.321      2076.0253      23.496         23.496         98.546229      0              0              0            
   1307700   800.97716     -32418.147      132.42053     -32285.726      2025.3434      23.496         23.496         98.697487      0              0              0            
   1307800   810.43082     -32422.265      133.98344     -32288.282      1970.6799      23.496         23.496         98.510817      0              0              0            
   1307900   780.64325     -32417.369      129.05885     -32288.311      2166.183       23.496         23.496         98.68073       0              0              0            
   1308000   784.51164     -32417.291      129.69839     -32287.593      1856.3299      23.496         23.496         99.118349      0              0              0            
   1308100   814.38986     -32422.557      134.63797     -32287.919      2086.7304      23.496         23.496         98.858307      0              0              0            
   1308200   809.21052     -32420.962      133.7817      -32287.18       1621.5256      23.496         23.496         99.134427      0              0              0            
   1308300   801.39194     -32417.326      132.4891      -32284.837      2303.4906      23.496         23.496         99.15043       0              0              0            
   1308400   792.34254     -32415.267      130.99302     -32284.274      2869.0074      23.496         23.496         98.538862      0              0              0            
   1308500   815.59273     -32421.385      134.83683     -32286.548      2064.3883      23.496         23.496         98.573953      0              0              0            
   1308600   808.2556      -32417.789      133.62383     -32284.165      1955.0374      23.496         23.496         99.086809      0              0              0            
   1308700   815.98639     -32418.375      134.90191     -32283.473      2814.9541      23.496         23.496         98.28806       0              0              0            
   1308800   804.53806     -32417.396      133.00923     -32284.387      2192.1331      23.496         23.496         98.776967      0              0              0            
   1308900   802.13321     -32420.873      132.61165     -32288.261      2875.4665      23.496         23.496         98.599983      0              0              0            
   1309000   798.16204     -32421.955      131.95512     -32290          2153.0426      23.496         23.496         98.710853      0              0              0            
   1309100   777.02402     -32417.745      128.46051     -32289.285      1901.6798      23.496         23.496         98.970968      0              0              0            
   1309200   792.69578     -32417.809      131.05142     -32286.757      2791.4318      23.496         23.496         99.006164      0              0              0            
   1309300   798.83447     -32419.989      132.06629     -32287.923      3040.3809      23.496         23.496         98.751073      0              0              0            
   1309400   797.6292      -32420.641      131.86703     -32288.774      1599.7853      23.496         23.496         98.83781       0              0              0            
   1309500   788.98218     -32418.084      130.43747     -32287.647      2303.7595      23.496         23.496         98.789265      0              0              0            
   1309600   817.24074     -32420.534      135.10928     -32285.425      3408.6248      23.496         23.496         98.624778      0              0              0            
   1309700   800.03211     -32415.752      132.26429     -32283.488      1868.2257      23.496         23.496         99.254701      0              0              0            
   1309800   829.28087     -32421.527      137.0998      -32284.427      2983.4907      23.496         23.496         98.325708      0              0              0            
   1309900   811.41687     -32419.441      134.14646     -32285.295      2705.31        23.496         23.496         98.514879      0              0              0            
   1310000   797.35635     -32416.626      131.82192     -32284.804      2248.8256      23.496         23.496         98.909219      0              0              0            
   1310100   789.31413     -32415.454      130.49235     -32284.962      2903.6928      23.496         23.496         98.60127       0              0              0            
   1310200   802.89914     -32418.695      132.73828     -32285.956      2483.2387      23.496         23.496         98.636386      0              0              0            
   1310300   799.60468     -32416.812      132.19363     -32284.618      2173.2136      23.496         23.496         98.940017      0              0              0            
   1310400   783.28557     -32414.276      129.49569     -32284.78       2774.8007      23.496         23.496         98.660504      0              0              0            
   1310500   807.46625     -32416.097      133.49333     -32282.603      1756.9549      23.496         23.496         99.065589      0              0              0            
   1310600   803.80946     -32415.95       132.88878     -32283.061      2297.7608      23.496         23.496         99.131084      0              0              0            
   1310700   798.11928     -32416.064      131.94805     -32284.116      2803.9979      23.496         23.496         98.740839      0              0              0            
   1310800   857.41043     -32421.421      141.75029     -32279.671      2393.0693      23.496         23.496         98.550691      0              0              0            
   1310900   819.89827     -32417.335      135.54864     -32281.787      2527.6034      23.496         23.496         98.759977      0              0              0            
   1311000   785.98106     -32413.188      129.94132     -32283.247      2199.782       23.496         23.496         98.84108       0              0              0            
   1311100   829.7243      -32419.523      137.17311     -32282.35       2390.2894      23.496         23.496         98.435938      0              0              0            
   1311200   820.10393     -32417.632      135.58264     -32282.05       2301.6813      23.496         23.496         98.66263       0              0              0            
   1311300   808.37784     -32414.461      133.64404     -32280.817      3253.265       23.496         23.496         98.697553      0              0              0            
   1311400   836.40833     -32417.228      138.27814     -32278.949      2781.9664      23.496         23.496         98.626556      0              0              0            
   1311500   831.92869     -32417.665      137.53755     -32280.127      2336.5705      23.496         23.496         98.628674      0              0              0            
   1311600   825.8637      -32417.719      136.53486     -32281.184      3032.2337      23.496         23.496         98.808963      0              0              0            
   1311700   816.50116     -32417.553      134.98701     -32282.566      2320.6982      23.496         23.496         98.794613      0              0              0            
   1311800   836.48489     -32422.343      138.2908      -32284.052      3617.0571      23.496         23.496         97.771871      0              0              0            
   1311900   815.61821     -32416.785      134.84104     -32281.944      3080.7497      23.496         23.496         98.178061      0              0              0            
   1312000   804.93492     -32416.015      133.07484     -32282.94       2520.9953      23.496         23.496         98.657371      0              0              0            
   1312100   845.21559     -32422.732      139.73419     -32282.998      2536.6668      23.496         23.496         98.386463      0              0              0            
   1312200   788.26026     -32413.611      130.31812     -32283.293      3062.2463      23.496         23.496         98.537712      0              0              0            
   1312300   837.72631     -32421.827      138.49603     -32283.331      2571.9049      23.496         23.496         98.614277      0              0              0            
   1312400   854.99693     -32423.888      141.35128     -32282.537      2654.4529      23.496         23.496         97.935467      0              0              0            
   1312500   820.15991     -32418.714      135.59189     -32283.122      2291.3499      23.496         23.496         98.573287      0              0              0            
   1312600   810.17403     -32419.116      133.94099     -32285.175      2439.5635      23.496         23.496         98.598667      0              0              0            
   1312700   823.25706     -32419.81       136.10392     -32283.706      2914.5393      23.496         23.496         98.228064      0              0              0            
   1312800   802.79556     -32419.302      132.72115     -32286.581      1826.6425      23.496         23.496         98.406726      0              0              0            
   1312900   825.45381     -32420.989      136.4671      -32284.522      3057.2447      23.496         23.496         98.120259      0              0              0            
   1313000   832.9309      -32422.9        137.70324     -32285.197      2000.9214      23.496         23.496         98.368668      0              0              0            
   1313100   798.03702     -32420.479      131.93445     -32288.544      1868.2196      23.496         23.496         98.686587      0              0              0            
   1313200   824.16745     -32424.478      136.25443     -32288.223      2208.7474      23.496         23.496         98.653556      0              0              0            
   1313300   789.23274     -32419.414      130.4789      -32288.936      2361.9621      23.496         23.496         98.636427      0              0              0            
   1313400   812.17928     -32423.956      134.2725      -32289.683      2235.3442      23.496         23.496         98.534595      0              0              0            
   1313500   776.33292     -32419.6        128.34625     -32291.254      3276.981       23.496         23.496         98.303         0              0              0            
   1313600   814.27516     -32424.217      134.619       -32289.598      1805.3316      23.496         23.496         98.885457      0              0              0            
   1313700   819.14069     -32426.602      135.42339     -32291.179      2956.7002      23.496         23.496         97.991541      0              0              0            
   1313800   802.07338     -32424.412      132.60176     -32291.81      