ITEM: TIMESTEP
0
ITEM: NUMBER OF ATOMS
1280
ITEM: BOX BOUNDS xy xz yz pp pp pp
0.0000000000000000e+00 2.3495999999999999e+01 0.0000000000000000e+00
0.0000000000000000e+00 2.3495999999999999e+01 0.0000000000000000e+00
0.0000000000000000e+00 9.7000000000000000e+01 0.0000000000000000e+00
ITEM: ATOMS id type xs ys zs
46 1 0.125 0.125 0
47 1 0.125 0 0.0302784
48 1 0 0.125 0.0302784
784 2 0 0 0
1040 3 0.125 0.125 0.0302784
226 1 0.375 0.125 0
227 1 0.375 0 0.0302784
228 1 0.25 0.125 0.0302784
844 2 0.25 0 0
1100 3 0.375 0.125 0.0302784
240 1 0.5 0.125 0.0302784
848 2 0.5 0 0
36 1 0.75 0.125 0.0302784
238 1 0.625 0.125 0
239 1 0.625 0 0.0302784
780 2 0.75 0 0
1104 3 0.625 0.125 0.0302784
34 1 0.875 0.125 0
35 1 0.875 0 0.0302784
1036 3 0.875 0.125 0.0302784
136 1 0.125 0.375 0
137 1 0.125 0.25 0.0302784
138 1 0 0.375 0.0302784
814 2 0 0.25 0
1070 3 0.125 0.375 0.0302784
316 1 0.375 0.375 0
317 1 0.375 0.25 0.0302784
318 1 0.25 0.375 0.0302784
874 2 0.25 0.25 0
1130 3 0.375 0.375 0.0302784
330 1 0.5 0.375 0.0302784
878 2 0.5 0.25 0
126 1 0.75 0.375 0.0302784
328 1 0.625 0.375 0
329 1 0.625 0.25 0.0302784
810 2 0.75 0.25 0
1134 3 0.625 0.375 0.0302784
124 1 0.875 0.375 0
125 1 0.875 0.25 0.0302784
1066 3 0.875 0.375 0.0302784
143 1 0.125 0.5 0.0302784
816 2 0 0.5 0
323 1 0.375 0.5 0.0302784
876 2 0.25 0.5 0
880 2 0.5 0.5 0
335 1 0.625 0.5 0.0302784
812 2 0.75 0.5 0
131 1 0.875 0.5 0.0302784
41 1 0.125 0.75 0.0302784
142 1 0.125 0.625 0
144 1 0 0.625 0.0302784
782 2 0 0.75 0
1072 3 0.125 0.625 0.0302784
221 1 0.375 0.75 0.0302784
322 1 0.375 0.625 0
324 1 0.25 0.625 0.0302784
842 2 0.25 0.75 0
1132 3 0.375 0.625 0.0302784
336 1 0.5 0.625 0.0302784
846 2 0.5 0.75 0
132 1 0.75 0.625 0.0302784
233 1 0.625 0.75 0.0302784
334 1 0.625 0.625 0
778 2 0.75 0.75 0
1136 3 0.625 0.625 0.0302784
29 1 0.875 0.75 0.0302784
130 1 0.875 0.625 0
1068 3 0.875 0.625 0.0302784
40 1 0.125 0.875 0
42 1 0 0.875 0.0302784
1038 3 0.125 0.875 0.0302784
220 1 0.375 0.875 0
222 1 0.25 0.875 0.0302784
1098 3 0.375 0.875 0.0302784
234 1 0.5 0.875 0.0302784
30 1 0.75 0.875 0.0302784
232 1 0.625 0.875 0
1102 3 0.625 0.875 0.0302784
28 1 0.875 0.875 0
1034 3 0.875 0.875 0.0302784
67 1 0.125 0.125 0.0605567
68 1 0.125 0 0.0908351
69 1 0 0.125 0.0908351
791 2 0 0 0.0605567
1047 3 0.125 0.125 0.0908351
247 1 0.375 0.125 0.0605567
248 1 0.375 0 0.0908351
249 1 0.25 0.125 0.0908351
851 2 0.25 0 0.0605567
1107 3 0.375 0.125 0.0908351
261 1 0.5 0.125 0.0908351
855 2 0.5 0 0.0605567
57 1 0.75 0.125 0.0908351
259 1 0.625 0.125 0.0605567
260 1 0.625 0 0.0908351
787 2 0.75 0 0.0605567
1111 3 0.625 0.125 0.0908351
55 1 0.875 0.125 0.0605567
56 1 0.875 0 0.0908351
1043 3 0.875 0.125 0.0908351
157 1 0.125 0.375 0.0605567
158 1 0.125 0.25 0.0908351
159 1 0 0.375 0.0908351
821 2 0 0.25 0.0605567
1077 3 0.125 0.375 0.0908351
337 1 0.375 0.375 0.0605567
338 1 0.375 0.25 0.0908351
339 1 0.25 0.375 0.0908351
881 2 0.25 0.25 0.0605567
1137 3 0.375 0.375 0.0908351
351 1 0.5 0.375 0.0908351
885 2 0.5 0.25 0.0605567
147 1 0.75 0.375 0.0908351
349 1 0.625 0.375 0.0605567
350 1 0.625 0.25 0.0908351
817 2 0.75 0.25 0.0605567
1141 3 0.625 0.375 0.0908351
145 1 0.875 0.375 0.0605567
146 1 0.875 0.25 0.0908351
1073 3 0.875 0.375 0.0908351
164 1 0.125 0.5 0.0908351
823 2 0 0.5 0.0605567
344 1 0.375 0.5 0.0908351
883 2 0.25 0.5 0.0605567
887 2 0.5 0.5 0.0605567
356 1 0.625 0.5 0.0908351
819 2 0.75 0.5 0.0605567
152 1 0.875 0.5 0.0908351
62 1 0.125 0.75 0.0908351
163 1 0.125 0.625 0.0605567
165 1 0 0.625 0.0908351
789 2 0 0.75 0.0605567
1079 3 0.125 0.625 0.0908351
242 1 0.375 0.75 0.0908351
343 1 0.375 0.625 0.0605567
345 1 0.25 0.625 0.0908351
849 2 0.25 0.75 0.0605567
1139 3 0.375 0.625 0.0908351
357 1 0.5 0.625 0.0908351
853 2 0.5 0.75 0.0605567
153 1 0.75 0.625 0.0908351
254 1 0.625 0.75 0.0908351
355 1 0.625 0.625 0.0605567
785 2 0.75 0.75 0.0605567
1143 3 0.625 0.625 0.0908351
50 1 0.875 0.75 0.0908351
151 1 0.875 0.625 0.0605567
1075 3 0.875 0.625 0.0908351
61 1 0.125 0.875 0.0605567
63 1 0 0.875 0.0908351
1045 3 0.125 0.875 0.0908351
241 1 0.375 0.875 0.0605567
243 1 0.25 0.875 0.0908351
1105 3 0.375 0.875 0.0908351
255 1 0.5 0.875 0.0908351
51 1 0.75 0.875 0.0908351
253 1 0.625 0.875 0.0605567
1109 3 0.625 0.875 0.0908351
49 1 0.875 0.875 0.0605567
1041 3 0.875 0.875 0.0908351
70 1 0.125 0.125 0.121113
792 2 0 0 0.121113
250 1 0.375 0.125 0.121113
852 2 0.25 0 0.121113
856 2 0.5 0 0.121113
262 1 0.625 0.125 0.121113
788 2 0.75 0 0.121113
58 1 0.875 0.125 0.121113
160 1 0.125 0.375 0.121113
822 2 0 0.25 0.121113
340 1 0.375 0.375 0.121113
882 2 0.25 0.25 0.121113
886 2 0.5 0.25 0.121113
352 1 0.625 0.375 0.121113
818 2 0.75 0.25 0.121113
148 1 0.875 0.375 0.121113
824 2 0 0.5 0.121113
884 2 0.25 0.5 0.121113
888 2 0.5 0.5 0.121113
820 2 0.75 0.5 0.121113
166 1 0.125 0.625 0.121113
790 2 0 0.75 0.121113
346 1 0.375 0.625 0.121113
850 2 0.25 0.75 0.121113
854 2 0.5 0.75 0.121113
358 1 0.625 0.625 0.121113
786 2 0.75 0.75 0.121113
154 1 0.875 0.625 0.121113
64 1 0.125 0.875 0.121113
244 1 0.375 0.875 0.121113
256 1 0.625 0.875 0.121113
52 1 0.875 0.875 0.121113
71 1 0.125 0 0.151392
72 1 0 0.125 0.151392
91 1 0.125 0.125 0.18167
799 2 0 0 0.18167
1048 3 0.125 0.125 0.151392
251 1 0.375 0 0.151392
252 1 0.25 0.125 0.151392
271 1 0.375 0.125 0.18167
859 2 0.25 0 0.18167
1108 3 0.375 0.125 0.151392
264 1 0.5 0.125 0.151392
863 2 0.5 0 0.18167
60 1 0.75 0.125 0.151392
263 1 0.625 0 0.151392
283 1 0.625 0.125 0.18167
795 2 0.75 0 0.18167
1112 3 0.625 0.125 0.151392
59 1 0.875 0 0.151392
79 1 0.875 0.125 0.18167
1044 3 0.875 0.125 0.151392
161 1 0.125 0.25 0.151392
162 1 0 0.375 0.151392
181 1 0.125 0.375 0.18167
829 2 0 0.25 0.18167
1078 3 0.125 0.375 0.151392
341 1 0.375 0.25 0.151392
342 1 0.25 0.375 0.151392
361 1 0.375 0.375 0.18167
889 2 0.25 0.25 0.18167
1138 3 0.375 0.375 0.151392
354 1 0.5 0.375 0.151392
893 2 0.5 0.25 0.18167
150 1 0.75 0.375 0.151392
353 1 0.625 0.25 0.151392
373 1 0.625 0.375 0.18167
825 2 0.75 0.25 0.18167
1142 3 0.625 0.375 0.151392
149 1 0.875 0.25 0.151392
169 1 0.875 0.375 0.18167
1074 3 0.875 0.375 0.151392
167 1 0.125 0.5 0.151392
831 2 0 0.5 0.18167
347 1 0.375 0.5 0.151392
891 2 0.25 0.5 0.18167
895 2 0.5 0.5 0.18167
359 1 0.625 0.5 0.151392
827 2 0.75 0.5 0.18167
155 1 0.875 0.5 0.151392
65 1 0.125 0.75 0.151392
168 1 0 0.625 0.151392
187 1 0.125 0.625 0.18167
797 2 0 0.75 0.18167
1080 3 0.125 0.625 0.151392
245 1 0.375 0.75 0.151392
348 1 0.25 0.625 0.151392
367 1 0.375 0.625 0.18167
857 2 0.25 0.75 0.18167
1140 3 0.375 0.625 0.151392
360 1 0.5 0.625 0.151392
861 2 0.5 0.75 0.18167
156 1 0.75 0.625 0.151392
257 1 0.625 0.75 0.151392
379 1 0.625 0.625 0.18167
793 2 0.75 0.75 0.18167
1144 3 0.625 0.625 0.151392
53 1 0.875 0.75 0.151392
175 1 0.875 0.625 0.18167
1076 3 0.875 0.625 0.151392
66 1 0 0.875 0.151392
85 1 0.125 0.875 0.18167
1046 3 0.125 0.875 0.151392
246 1 0.25 0.875 0.151392
265 1 0.375 0.875 0.18167
1106 3 0.375 0.875 0.151392
258 1 0.5 0.875 0.151392
54 1 0.75 0.875 0.151392
277 1 0.625 0.875 0.18167
1110 3 0.625 0.875 0.151392
73 1 0.875 0.875 0.18167
1042 3 0.875 0.875 0.151392
92 1 0.125 0 0.211948
93 1 0 0.125 0.211948
1055 3 0.125 0.125 0.211948
272 1 0.375 0 0.211948
273 1 0.25 0.125 0.211948
1115 3 0.375 0.125 0.211948
285 1 0.5 0.125 0.211948
81 1 0.75 0.125 0.211948
284 1 0.625 0 0.211948
1119 3 0.625 0.125 0.211948
80 1 0.875 0 0.211948
1051 3 0.875 0.125 0.211948
182 1 0.125 0.25 0.211948
183 1 0 0.375 0.211948
1085 3 0.125 0.375 0.211948
362 1 0.375 0.25 0.211948
363 1 0.25 0.375 0.211948
1145 3 0.375 0.375 0.211948
375 1 0.5 0.375 0.211948
171 1 0.75 0.375 0.211948
374 1 0.625 0.25 0.211948
1149 3 0.625 0.375 0.211948
170 1 0.875 0.25 0.211948
1081 3 0.875 0.375 0.211948
188 1 0.125 0.5 0.211948
368 1 0.375 0.5 0.211948
380 1 0.625 0.5 0.211948
176 1 0.875 0.5 0.211948
86 1 0.125 0.75 0.211948
189 1 0 0.625 0.211948
1087 3 0.125 0.625 0.211948
266 1 0.375 0.75 0.211948
369 1 0.25 0.625 0.211948
1147 3 0.375 0.625 0.211948
381 1 0.5 0.625 0.211948
177 1 0.75 0.625 0.211948
278 1 0.625 0.75 0.211948
1151 3 0.625 0.625 0.211948
74 1 0.875 0.75 0.211948
1083 3 0.875 0.625 0.211948
87 1 0 0.875 0.211948
1053 3 0.125 0.875 0.211948
267 1 0.25 0.875 0.211948
1113 3 0.375 0.875 0.211948
279 1 0.5 0.875 0.211948
75 1 0.75 0.875 0.211948
1117 3 0.625 0.875 0.211948
1049 3 0.875 0.875 0.211948
94 1 0.125 0.125 0.242227
95 1 0.125 0 0.272505
96 1 0 0.125 0.272505
800 2 0 0 0.242227
1056 3 0.125 0.125 0.272505
274 1 0.375 0.125 0.242227
275 1 0.375 0 0.272505
276 1 0.25 0.125 0.272505
860 2 0.25 0 0.242227
1116 3 0.375 0.125 0.272505
288 1 0.5 0.125 0.272505
864 2 0.5 0 0.242227
84 1 0.75 0.125 0.272505
286 1 0.625 0.125 0.242227
287 1 0.625 0 0.272505
796 2 0.75 0 0.242227
1120 3 0.625 0.125 0.272505
82 1 0.875 0.125 0.242227
83 1 0.875 0 0.272505
1052 3 0.875 0.125 0.272505
184 1 0.125 0.375 0.242227
185 1 0.125 0.25 0.272505
186 1 0 0.375 0.272505
830 2 0 0.25 0.242227
1086 3 0.125 0.375 0.272505
364 1 0.375 0.375 0.242227
365 1 0.375 0.25 0.272505
366 1 0.25 0.375 0.272505
890 2 0.25 0.25 0.242227
1146 3 0.375 0.375 0.272505
378 1 0.5 0.375 0.272505
894 2 0.5 0.25 0.242227
174 1 0.75 0.375 0.272505
376 1 0.625 0.375 0.242227
377 1 0.625 0.25 0.272505
826 2 0.75 0.25 0.242227
1150 3 0.625 0.375 0.272505
172 1 0.875 0.375 0.242227
173 1 0.875 0.25 0.272505
1082 3 0.875 0.375 0.272505
191 1 0.125 0.5 0.272505
832 2 0 0.5 0.242227
371 1 0.375 0.5 0.272505
892 2 0.25 0.5 0.242227
896 2 0.5 0.5 0.242227
383 1 0.625 0.5 0.272505
828 2 0.75 0.5 0.242227
179 1 0.875 0.5 0.272505
89 1 0.125 0.75 0.272505
190 1 0.125 0.625 0.242227
192 1 0 0.625 0.272505
798 2 0 0.75 0.242227
1088 3 0.125 0.625 0.272505
269 1 0.375 0.75 0.272505
370 1 0.375 0.625 0.242227
372 1 0.25 0.625 0.272505
858 2 0.25 0.75 0.242227
1148 3 0.375 0.625 0.272505
384 1 0.5 0.625 0.272505
862 2 0.5 0.75 0.242227
180 1 0.75 0.625 0.272505
281 1 0.625 0.75 0.272505
382 1 0.625 0.625 0.242227
794 2 0.75 0.75 0.242227
1152 3 0.625 0.625 0.272505
77 1 0.875 0.75 0.272505
178 1 0.875 0.625 0.242227
1084 3 0.875 0.625 0.272505
88 1 0.125 0.875 0.242227
90 1 0 0.875 0.272505
1054 3 0.125 0.875 0.272505
268 1 0.375 0.875 0.242227
270 1 0.25 0.875 0.272505
1114 3 0.375 0.875 0.272505
282 1 0.5 0.875 0.272505
78 1 0.75 0.875 0.272505
280 1 0.625 0.875 0.242227
1118 3 0.625 0.875 0.272505
76 1 0.875 0.875 0.242227
1050 3 0.875 0.875 0.272505
391 1 0.0956333 0.0741403 0.32767
403 1 0.0430286 0.197182 0.330608
600 1 0.30618 0.161474 0.307412
1219 3 0.303243 0.0649472 0.327629
583 1 0.595633 0.0741403 0.32767
595 1 0.543029 0.197182 0.330608
408 1 0.80618 0.161474 0.307412
1155 3 0.803243 0.0649472 0.327629
386 1 0.132916 0.209993 0.30567
933 2 0.0973357 0.325034 0.329381
898 2 0.209312 0.232295 0.331361
687 1 0.458589 0.355252 0.320495
997 2 0.597336 0.325034 0.329381
578 1 0.632916 0.209993 0.30567
962 2 0.709312 0.232295 0.331361
495 1 0.958589 0.355252 0.320495
487 1 0.0956333 0.57414 0.32767
500 1 0.0634576 0.453864 0.313856
494 1 0.234295 0.430031 0.33234
685 1 0.373085 0.419688 0.304454
1251 3 0.303243 0.564947 0.327629
679 1 0.595633 0.57414 0.32767
692 1 0.563458 0.453864 0.313856
1249 3 0.453056 0.474379 0.321443
686 1 0.734295 0.430031 0.33234
493 1 0.873085 0.419688 0.304454
1185 3 0.953056 0.474379 0.321443
1187 3 0.803243 0.564947 0.327629
482 1 0.132916 0.709993 0.30567
499 1 0.0430286 0.697182 0.330608
696 1 0.30618 0.661474 0.307412
930 2 0.209312 0.732295 0.331361
691 1 0.543029 0.697182 0.330608
674 1 0.632916 0.709993 0.30567
994 2 0.709312 0.732295 0.331361
504 1 0.80618 0.661474 0.307412
404 1 0.0634576 0.953864 0.313856
901 2 0.0973357 0.825034 0.329381
398 1 0.234295 0.930031 0.33234
589 1 0.373085 0.919688 0.304454
591 1 0.458589 0.855252 0.320495
596 1 0.563458 0.953864 0.313856
965 2 0.597336 0.825034 0.329381
1217 3 0.453056 0.974379 0.321443
590 1 0.734295 0.930031 0.33234
397 1 0.873085 0.919688 0.304454
399 1 0.958589 0.855252 0.320495
1153 3 0.953056 0.974379 0.321443
1159 3 0.0605635 0.115254 0.35701
393 1 0.24851 0.106827 0.348526
394 1 0.203141 0.0606486 0.375495
580 1 0.392961 0.0992084 0.334629
1220 3 0.358912 0.0710334 0.363505
581 1 0.419263 0.166411 0.374784
1223 3 0.560564 0.115254 0.35701
585 1 0.74851 0.106827 0.348526
586 1 0.703141 0.0606486 0.375495
388 1 0.892961 0.0992084 0.334629
389 1 0.919263 0.166411 0.374784
1156 3 0.858912 0.0710334 0.363505
405 1 0.104103 0.240764 0.361237
496 1 0.0648621 0.376958 0.361041
678 1 0.337291 0.301115 0.363546
932 2 0.247106 0.397387 0.371938
688 1 0.564862 0.376958 0.361041
998 2 0.444331 0.276813 0.343804
1250 3 0.415432 0.390237 0.373268
597 1 0.604103 0.240764 0.361237
996 2 0.747106 0.397387 0.371938
486 1 0.837291 0.301115 0.363546
934 2 0.944331 0.276813 0.343804
1186 3 0.915432 0.390237 0.373268
1189 3 0.139641 0.46676 0.344526
490 1 0.203141 0.560649 0.375495
675 1 0.362913 0.440628 0.344124
676 1 0.392961 0.599208 0.334629
1252 3 0.358912 0.571033 0.363505
680 1 0.480167 0.490466 0.359959
682 1 0.703141 0.560649 0.375495
1253 3 0.639641 0.46676 0.344526
483 1 0.862913 0.440628 0.344124
484 1 0.892961 0.599208 0.334629
488 1 0.980167 0.490466 0.359959
1188 3 0.858912 0.571033 0.363505
501 1 0.104103 0.740764 0.361237
1191 3 0.0605635 0.615254 0.35701
489 1 0.24851 0.606827 0.348526
677 1 0.419263 0.666411 0.374784
966 2 0.444331 0.776813 0.343804
1255 3 0.560564 0.615254 0.35701
681 1 0.74851 0.606827 0.348526
693 1 0.604103 0.740764 0.361237
485 1 0.919263 0.666411 0.374784
902 2 0.944331 0.776813 0.343804
400 1 0.0648621 0.876958 0.361041
1157 3 0.139641 0.96676 0.344526
579 1 0.362913 0.940628 0.344124
582 1 0.337291 0.801115 0.363546
900 2 0.247106 0.897387 0.371938
584 1 0.480167 0.990466 0.359959
592 1 0.564862 0.876958 0.361041
1218 3 0.415432 0.890237 0.373268
964 2 0.747106 0.897387 0.371938
1221 3 0.639641 0.96676 0.344526
387 1 0.862913 0.940628 0.344124
390 1 0.837291 0.801115 0.363546
392 1 0.980167 0.990466 0.359959
1154 3 0.915432 0.890237 0.373268
401 1 0.0511576 0.12534 0.388969
406 1 0.142663 0.0147259 0.405948
1160 3 0.153047 0.151515 0.395031
624 1 0.30618 0.161474 0.428526
577 1 0.468037 0.0696289 0.414196
593 1 0.551158 0.12534 0.388969
967 2 0.462291 0.188372 0.41699
598 1 0.642663 0.0147259 0.405948
1224 3 0.653047 0.151515 0.395031
385 1 0.968037 0.0696289 0.414196
432 1 0.80618 0.161474 0.428526
903 2 0.962291 0.188372 0.41699
410 1 0.132916 0.209993 0.426784
503 1 0.116616 0.364488 0.411361
1190 3 0.0883129 0.268003 0.392577
492 1 0.211823 0.25847 0.384454
993 2 0.264343 0.319714 0.41933
690 1 0.427264 0.29954 0.394423
1254 3 0.588313 0.268003 0.392577
602 1 0.632916 0.209993 0.426784
684 1 0.711823 0.25847 0.384454
695 1 0.616616 0.364488 0.411361
929 2 0.764343 0.319714 0.41933
498 1 0.927264 0.29954 0.394423
502 1 0.142663 0.514726 0.405948
683 1 0.364615 0.499532 0.387866
709 1 0.373085 0.419688 0.425567
995 2 0.277366 0.485572 0.419629
673 1 0.468037 0.569629 0.414196
1000 2 0.479614 0.442075 0.402629
694 1 0.642663 0.514726 0.405948
931 2 0.777366 0.485572 0.419629
481 1 0.968037 0.569629 0.414196
491 1 0.864615 0.499532 0.387866
517 1 0.873085 0.419688 0.425567
936 2 0.979614 0.442075 0.402629
497 1 0.0511576 0.62534 0.388969
506 1 0.132916 0.709993 0.426784
1158 3 0.0883129 0.768003 0.392577
1192 3 0.153047 0.651515 0.395031
396 1 0.211823 0.75847 0.384454
720 1 0.30618 0.661474 0.428526
594 1 0.427264 0.79954 0.394423
689 1 0.551158 0.62534 0.388969
999 2 0.462291 0.688372 0.41699
1222 3 0.588313 0.768003 0.392577
588 1 0.711823 0.75847 0.384454
698 1 0.632916 0.709993 0.426784
1256 3 0.653047 0.651515 0.395031
402 1 0.927264 0.79954 0.394423
528 1 0.80618 0.661474 0.428526
935 2 0.962291 0.688372 0.41699
407 1 0.116616 0.864488 0.411361
587 1 0.364615 0.999532 0.387866
613 1 0.373085 0.919688 0.425567
961 2 0.264343 0.819714 0.41933
963 2 0.277366 0.985572 0.419629
968 2 0.479614 0.942075 0.402629
599 1 0.616616 0.864488 0.411361
897 2 0.764343 0.819714 0.41933
899 2 0.777366 0.985572 0.419629
395 1 0.864615 0.999532 0.387866
421 1 0.873085 0.919688 0.425567
904 2 0.979614 0.942075 0.402629
415 1 0.0956333 0.0741403 0.448784
427 1 0.0430286 0.197182 0.451722
417 1 0.24851 0.106827 0.469639
604 1 0.392961 0.0992084 0.455742
1227 3 0.303243 0.0649472 0.448742
607 1 0.595633 0.0741403 0.448784
619 1 0.543029 0.197182 0.451722
609 1 0.74851 0.106827 0.469639
412 1 0.892961 0.0992084 0.455742
1163 3 0.803243 0.0649472 0.448742
941 2 0.0973357 0.325034 0.450495
906 2 0.209312 0.232295 0.452474
711 1 0.458589 0.355252 0.441608
1005 2 0.597336 0.325034 0.450495
1006 2 0.444331 0.276813 0.464918
970 2 0.709312 0.232295 0.452474
519 1 0.958589 0.355252 0.441608
942 2 0.944331 0.276813 0.464918
511 1 0.0956333 0.57414 0.448784
524 1 0.0634576 0.453864 0.434969
1197 3 0.139641 0.46676 0.465639
518 1 0.234295 0.430031 0.453454
699 1 0.362913 0.440628 0.465237
700 1 0.392961 0.599208 0.455742
1259 3 0.303243 0.564947 0.448742
703 1 0.595633 0.57414 0.448784
716 1 0.563458 0.453864 0.434969
1257 3 0.453056 0.474379 0.442557
710 1 0.734295 0.430031 0.453454
1261 3 0.639641 0.46676 0.465639
507 1 0.862913 0.440628 0.465237
508 1 0.892961 0.599208 0.455742
1193 3 0.953056 0.474379 0.442557
1195 3 0.803243 0.564947 0.448742
523 1 0.0430286 0.697182 0.451722
513 1 0.24851 0.606827 0.469639
938 2 0.209312 0.732295 0.452474
715 1 0.543029 0.697182 0.451722
974 2 0.444331 0.776813 0.464918
705 1 0.74851 0.606827 0.469639
1002 2 0.709312 0.732295 0.452474
910 2 0.944331 0.776813 0.464918
428 1 0.0634576 0.953864 0.434969
909 2 0.0973357 0.825034 0.450495
1165 3 0.139641 0.96676 0.465639
422 1 0.234295 0.930031 0.453454
603 1 0.362913 0.940628 0.465237
615 1 0.458589 0.855252 0.441608
620 1 0.563458 0.953864 0.434969
973 2 0.597336 0.825034 0.450495
1225 3 0.453056 0.974379 0.442557
614 1 0.734295 0.930031 0.453454
1229 3 0.639641 0.96676 0.465639
411 1 0.862913 0.940628 0.465237
423 1 0.958589 0.855252 0.441608
1161 3 0.953056 0.974379 0.442557
425 1 0.0511576 0.12534 0.510082
1167 3 0.0605635 0.115254 0.478124
1168 3 0.153047 0.151515 0.516144
418 1 0.203141 0.0606486 0.496608
1228 3 0.358912 0.0710334 0.484619
605 1 0.419263 0.166411 0.495897
617 1 0.551158 0.12534 0.510082
1231 3 0.560564 0.115254 0.478124
610 1 0.703141 0.0606486 0.496608
1232 3 0.653047 0.151515 0.516144
413 1 0.919263 0.166411 0.495897
1164 3 0.858912 0.0710334 0.484619
429 1 0.104103 0.240764 0.482351
520 1 0.0648621 0.376958 0.482155
1198 3 0.0883129 0.268003 0.513691
516 1 0.211823 0.25847 0.505567
702 1 0.337291 0.301115 0.48466
940 2 0.247106 0.397387 0.493052
712 1 0.564862 0.376958 0.482155
714 1 0.427264 0.29954 0.515536
1258 3 0.415432 0.390237 0.494381
1262 3 0.588313 0.268003 0.513691
621 1 0.604103 0.240764 0.482351
708 1 0.711823 0.25847 0.505567
1004 2 0.747106 0.397387 0.493052
510 1 0.837291 0.301115 0.48466
522 1 0.927264 0.29954 0.515536
1194 3 0.915432 0.390237 0.494381
514 1 0.203141 0.560649 0.496608
707 1 0.364615 0.499532 0.508979
1260 3 0.358912 0.571033 0.484619
704 1 0.480167 0.490466 0.481072
1008 2 0.479614 0.442075 0.523742
706 1 0.703141 0.560649 0.496608
512 1 0.980167 0.490466 0.481072
515 1 0.864615 0.499532 0.508979
944 2 0.979614 0.442075 0.523742
1196 3 0.858912 0.571033 0.484619
521 1 0.0511576 0.62534 0.510082
525 1 0.104103 0.740764 0.482351
1166 3 0.0883129 0.768003 0.513691
1199 3 0.0605635 0.615254 0.478124
1200 3 0.153047 0.651515 0.516144
420 1 0.211823 0.75847 0.505567
618 1 0.427264 0.79954 0.515536
701 1 0.419263 0.666411 0.495897
713 1 0.551158 0.62534 0.510082
1230 3 0.588313 0.768003 0.513691
1263 3 0.560564 0.615254 0.478124
612 1 0.711823 0.75847 0.505567
717 1 0.604103 0.740764 0.482351
1264 3 0.653047 0.651515 0.516144
426 1 0.927264 0.79954 0.515536
509 1 0.919263 0.666411 0.495897
424 1 0.0648621 0.876958 0.482155
606 1 0.337291 0.801115 0.48466
611 1 0.364615 0.999532 0.508979
908 2 0.247106 0.897387 0.493052
608 1 0.480167 0.990466 0.481072
616 1 0.564862 0.876958 0.482155
976 2 0.479614 0.942075 0.523742
1226 3 0.415432 0.890237 0.494381
972 2 0.747106 0.897387 0.493052
414 1 0.837291 0.801115 0.48466
416 1 0.980167 0.990466 0.481072
419 1 0.864615 0.999532 0.508979
912 2 0.979614 0.942075 0.523742
1162 3 0.915432 0.890237 0.494381
430 1 0.142663 0.0147259 0.527062
439 1 0.0956333 0.0741403 0.569897
648 1 0.30618 0.161474 0.549639
1235 3 0.303243 0.0649472 0.569856
601 1 0.468037 0.0696289 0.535309
631 1 0.595633 0.0741403 0.569897
975 2 0.462291 0.188372 0.538103
622 1 0.642663 0.0147259 0.527062
409 1 0.968037 0.0696289 0.535309
456 1 0.80618 0.161474 0.549639
911 2 0.962291 0.188372 0.538103
1171 3 0.803243 0.0649472 0.569856
434 1 0.132916 0.209993 0.547897
527 1 0.116616 0.364488 0.532474
1001 2 0.264343 0.319714 0.540443
735 1 0.458589 0.355252 0.562722
626 1 0.632916 0.209993 0.547897
719 1 0.616616 0.364488 0.532474
937 2 0.764343 0.319714 0.540443
543 1 0.958589 0.355252 0.562722
526 1 0.142663 0.514726 0.527062
535 1 0.0956333 0.57414 0.569897
548 1 0.0634576 0.453864 0.556082
733 1 0.373085 0.419688 0.54668
1003 2 0.277366 0.485572 0.540742
1267 3 0.303243 0.564947 0.569856
697 1 0.468037 0.569629 0.535309
727 1 0.595633 0.57414 0.569897
740 1 0.563458 0.453864 0.556082
1265 3 0.453056 0.474379 0.56367
718 1 0.642663 0.514726 0.527062
939 2 0.777366 0.485572 0.540742
505 1 0.968037 0.569629 0.535309
541 1 0.873085 0.419688 0.54668
1201 3 0.953056 0.474379 0.56367
1203 3 0.803243 0.564947 0.569856
530 1 0.132916 0.709993 0.547897
744 1 0.30618 0.661474 0.549639
1007 2 0.462291 0.688372 0.538103
722 1 0.632916 0.709993 0.547897
552 1 0.80618 0.661474 0.549639
943 2 0.962291 0.688372 0.538103
431 1 0.116616 0.864488 0.532474
452 1 0.0634576 0.953864 0.556082
637 1 0.373085 0.919688 0.54668
969 2 0.264343 0.819714 0.540443
971 2 0.277366 0.985572 0.540742
639 1 0.458589 0.855252 0.562722
644 1 0.563458 0.953864 0.556082
1233 3 0.453056 0.974379 0.56367
623 1 0.616616 0.864488 0.532474
905 2 0.764343 0.819714 0.540443
907 2 0.777366 0.985572 0.540742
445 1 0.873085 0.919688 0.54668
447 1 0.958589 0.855252 0.562722
1169 3 0.953056 0.974379 0.56367
451 1 0.0430286 0.197182 0.572835
1175 3 0.0605635 0.115254 0.599237
441 1 0.24851 0.106827 0.590753
442 1 0.203141 0.0606486 0.617722
628 1 0.392961 0.0992084 0.576856
1236 3 0.358912 0.0710334 0.605732
629 1 0.419263 0.166411 0.61701
643 1 0.543029 0.197182 0.572835
1239 3 0.560564 0.115254 0.599237
633 1 0.74851 0.106827 0.590753
634 1 0.703141 0.0606486 0.617722
436 1 0.892961 0.0992084 0.576856
437 1 0.919263 0.166411 0.61701
1172 3 0.858912 0.0710334 0.605732
453 1 0.104103 0.240764 0.603464
544 1 0.0648621 0.376958 0.603268
949 2 0.0973357 0.325034 0.571608
726 1 0.337291 0.301115 0.605773
914 2 0.209312 0.232295 0.573588
948 2 0.247106 0.397387 0.614165
736 1 0.564862 0.376958 0.603268
1013 2 0.597336 0.325034 0.571608
1014 2 0.444331 0.276813 0.586031
1266 3 0.415432 0.390237 0.615495
645 1 0.604103 0.240764 0.603464
978 2 0.709312 0.232295 0.573588
1012 2 0.747106 0.397387 0.614165
534 1 0.837291 0.301115 0.605773
950 2 0.944331 0.276813 0.586031
1202 3 0.915432 0.390237 0.615495
1205 3 0.139641 0.46676 0.586753
538 1 0.203141 0.560649 0.617722
542 1 0.234295 0.430031 0.574567
723 1 0.362913 0.440628 0.586351
724 1 0.392961 0.599208 0.576856
1268 3 0.358912 0.571033 0.605732
728 1 0.480167 0.490466 0.602186
730 1 0.703141 0.560649 0.617722
734 1 0.734295 0.430031 0.574567
1269 3 0.639641 0.46676 0.586753
531 1 0.862913 0.440628 0.586351
532 1 0.892961 0.599208 0.576856
536 1 0.980167 0.490466 0.602186
1204 3 0.858912 0.571033 0.605732
547 1 0.0430286 0.697182 0.572835
549 1 0.104103 0.740764 0.603464
1207 3 0.0605635 0.615254 0.599237
537 1 0.24851 0.606827 0.590753
946 2 0.209312 0.732295 0.573588
725 1 0.419263 0.666411 0.61701
739 1 0.543029 0.697182 0.572835
982 2 0.444331 0.776813 0.586031
1271 3 0.560564 0.615254 0.599237
729 1 0.74851 0.606827 0.590753
741 1 0.604103 0.740764 0.603464
1010 2 0.709312 0.732295 0.573588
533 1 0.919263 0.666411 0.61701
918 2 0.944331 0.776813 0.586031
448 1 0.0648621 0.876958 0.603268
917 2 0.0973357 0.825034 0.571608
1173 3 0.139641 0.96676 0.586753
446 1 0.234295 0.930031 0.574567
627 1 0.362913 0.940628 0.586351
630 1 0.337291 0.801115 0.605773
916 2 0.247106 0.897387 0.614165
632 1 0.480167 0.990466 0.602186
640 1 0.564862 0.876958 0.603268
981 2 0.597336 0.825034 0.571608
1234 3 0.415432 0.890237 0.615495
638 1 0.734295 0.930031 0.574567
980 2 0.747106 0.897387 0.614165
1237 3 0.639641 0.96676 0.586753
435 1 0.862913 0.940628 0.586351
438 1 0.837291 0.801115 0.605773
440 1 0.980167 0.990466 0.602186
1170 3 0.915432 0.890237 0.615495
449 1 0.0511576 0.12534 0.631196
454 1 0.142663 0.0147259 0.648175
1176 3 0.153047 0.151515 0.637258
625 1 0.468037 0.0696289 0.656423
641 1 0.551158 0.12534 0.631196
983 2 0.462291 0.188372 0.659216
646 1 0.642663 0.0147259 0.648175
1240 3 0.653047 0.151515 0.637258
433 1 0.968037 0.0696289 0.656423
919 2 0.962291 0.188372 0.659216
551 1 0.116616 0.364488 0.653588
1206 3 0.0883129 0.268003 0.634804
540 1 0.211823 0.25847 0.62668
1009 2 0.264343 0.319714 0.661557
738 1 0.427264 0.29954 0.636649
1270 3 0.588313 0.268003 0.634804
732 1 0.711823 0.25847 0.62668
743 1 0.616616 0.364488 0.653588
945 2 0.764343 0.319714 0.661557
546 1 0.927264 0.29954 0.636649
550 1 0.142663 0.514726 0.648175
731 1 0.364615 0.499532 0.630093
1011 2 0.277366 0.485572 0.661856
721 1 0.468037 0.569629 0.656423
1016 2 0.479614 0.442075 0.644856
742 1 0.642663 0.514726 0.648175
947 2 0.777366 0.485572 0.661856
529 1 0.968037 0.569629 0.656423
539 1 0.864615 0.499532 0.630093
952 2 0.979614 0.442075 0.644856
545 1 0.0511576 0.62534 0.631196
1174 3 0.0883129 0.768003 0.634804
1208 3 0.153047 0.651515 0.637258
444 1 0.211823 0.75847 0.62668
642 1 0.427264 0.79954 0.636649
737 1 0.551158 0.62534 0.631196
1015 2 0.462291 0.688372 0.659216
1238 3 0.588313 0.768003 0.634804
636 1 0.711823 0.75847 0.62668
1272 3 0.653047 0.651515 0.637258
450 1 0.927264 0.79954 0.636649
951 2 0.962291 0.688372 0.659216
455 1 0.116616 0.864488 0.653588
635 1 0.364615 0.999532 0.630093
977 2 0.264343 0.819714 0.661557
979 2 0.277366 0.985572 0.661856
984 2 0.479614 0.942075 0.644856
647 1 0.616616 0.864488 0.653588
913 2 0.764343 0.819714 0.661557
915 2 0.777366 0.985572 0.661856
443 1 0.864615 0.999532 0.630093
920 2 0.979614 0.942075 0.644856
463 1 0.0956333 0.0741403 0.69101
475 1 0.0430286 0.197182 0.693948
465 1 0.24851 0.106827 0.711866
652 1 0.392961 0.0992084 0.697969
672 1 0.30618 0.161474 0.670753
1243 3 0.303243 0.0649472 0.690969
655 1 0.595633 0.0741403 0.69101
667 1 0.543029 0.197182 0.693948
657 1 0.74851 0.106827 0.711866
460 1 0.892961 0.0992084 0.697969
480 1 0.80618 0.161474 0.670753
1179 3 0.803243 0.0649472 0.690969
458 1 0.132916 0.209993 0.66901
957 2 0.0973357 0.325034 0.692722
922 2 0.209312 0.232295 0.694701
759 1 0.458589 0.355252 0.683835
1021 2 0.597336 0.325034 0.692722
1022 2 0.444331 0.276813 0.707144
650 1 0.632916 0.209993 0.66901
986 2 0.709312 0.232295 0.694701
567 1 0.958589 0.355252 0.683835
958 2 0.944331 0.276813 0.707144
559 1 0.0956333 0.57414 0.69101
572 1 0.0634576 0.453864 0.677196
1213 3 0.139641 0.46676 0.707866
566 1 0.234295 0.430031 0.69568
747 1 0.362913 0.440628 0.707464
748 1 0.392961 0.599208 0.697969
757 1 0.373085 0.419688 0.667794
1275 3 0.303243 0.564947 0.690969
751 1 0.595633 0.57414 0.69101
764 1 0.563458 0.453864 0.677196
1273 3 0.453056 0.474379 0.684784
758 1 0.734295 0.430031 0.69568
1277 3 0.639641 0.46676 0.707866
555 1 0.862913 0.440628 0.707464
556 1 0.892961 0.599208 0.697969
565 1 0.873085 0.419688 0.667794
1209 3 0.953056 0.474379 0.684784
1211 3 0.803243 0.564947 0.690969
554 1 0.132916 0.709993 0.66901
571 1 0.0430286 0.697182 0.693948
561 1 0.24851 0.606827 0.711866
768 1 0.30618 0.661474 0.670753
954 2 0.209312 0.732295 0.694701
763 1 0.543029 0.697182 0.693948
990 2 0.444331 0.776813 0.707144
746 1 0.632916 0.709993 0.66901
753 1 0.74851 0.606827 0.711866
1018 2 0.709312 0.732295 0.694701
576 1 0.80618 0.661474 0.670753
926 2 0.944331 0.776813 0.707144
476 1 0.0634576 0.953864 0.677196
925 2 0.0973357 0.825034 0.692722
1181 3 0.139641 0.96676 0.707866
470 1 0.234295 0.930031 0.69568
651 1 0.362913 0.940628 0.707464
661 1 0.373085 0.919688 0.667794
663 1 0.458589 0.855252 0.683835
668 1 0.563458 0.953864 0.677196
989 2 0.597336 0.825034 0.692722
1241 3 0.453056 0.974379 0.684784
662 1 0.734295 0.930031 0.69568
1245 3 0.639641 0.96676 0.707866
459 1 0.862913 0.940628 0.707464
469 1 0.873085 0.919688 0.667794
471 1 0.958589 0.855252 0.683835
1177 3 0.953056 0.974379 0.684784
473 1 0.0511576 0.12534 0.752309
1183 3 0.0605635 0.115254 0.720351
1184 3 0.153047 0.151515 0.758371
466 1 0.203141 0.0606486 0.738835
1244 3 0.358912 0.0710334 0.726845
653 1 0.419263 0.166411 0.738124
665 1 0.551158 0.12534 0.752309
1247 3 0.560564 0.115254 0.720351
658 1 0.703141 0.0606486 0.738835
1248 3 0.653047 0.151515 0.758371
461 1 0.919263 0.166411 0.738124
1180 3 0.858912 0.0710334 0.726845
477 1 0.104103 0.240764 0.724577
568 1 0.0648621 0.376958 0.724381
1214 3 0.0883129 0.268003 0.755918
564 1 0.211823 0.25847 0.747794
750 1 0.337291 0.301115 0.726887
956 2 0.247106 0.397387 0.735278
760 1 0.564862 0.376958 0.724381
762 1 0.427264 0.29954 0.757763
1274 3 0.415432 0.390237 0.736608
1278 3 0.588313 0.268003 0.755918
669 1 0.604103 0.240764 0.724577
756 1 0.711823 0.25847 0.747794
1020 2 0.747106 0.397387 0.735278
558 1 0.837291 0.301115 0.726887
570 1 0.927264 0.29954 0.757763
1210 3 0.915432 0.390237 0.736608
562 1 0.203141 0.560649 0.738835
755 1 0.364615 0.499532 0.751206
1276 3 0.358912 0.571033 0.726845
752 1 0.480167 0.490466 0.723299
754 1 0.703141 0.560649 0.738835
560 1 0.980167 0.490466 0.723299
563 1 0.864615 0.499532 0.751206
1212 3 0.858912 0.571033 0.726845
569 1 0.0511576 0.62534 0.752309
573 1 0.104103 0.740764 0.724577
1182 3 0.0883129 0.768003 0.755918
1215 3 0.0605635 0.615254 0.720351
1216 3 0.153047 0.651515 0.758371
468 1 0.211823 0.75847 0.747794
666 1 0.427264 0.79954 0.757763