LAMMPS (29 Aug 2024 - Development - 6d634dc-modified)
OMP_NUM_THREADS environment is not set. Defaulting to 1 thread. (src/comm.cpp:99)
  using 1 OpenMP thread(s) per MPI task
Reading data file ...
  triclinic box = (0 0 0) to (23.496 23.496 97) with tilt (0 0 0)
  1 by 1 by 1 MPI processor grid
  reading atoms ...
  1280 atoms
  read_data CPU = 0.006 seconds
NEQUIP is using device cuda
NequIP Coeff: type 1 is element Br
NequIP Coeff: type 2 is element Cs
NequIP Coeff: type 3 is element Pb
Loading model from ./best.pth
Freezing TorchScript model...

CITE-CITE-CITE-CITE-CITE-CITE-CITE-CITE-CITE-CITE-CITE-CITE-CITE

Your simulation uses code contributions which should be cited:
- Type Label Framework: https://doi.org/10.1021/acs.jpcb.3c08419
The log file lists these citations in BibTeX format.

CITE-CITE-CITE-CITE-CITE-CITE-CITE-CITE-CITE-CITE-CITE-CITE-CITE

Neighbor list info ...
  update: every = 1 steps, delay = 5 steps, check = yes
  max neighbors/atom: 2000, page size: 100000
  master list distance cutoff = 9
  ghost atom cutoff = 9
  binsize = 4.5, bins = 6 6 22
  1 neighbor lists, perpetual/occasional/extra = 1 0 0
  (1) pair nequip, perpetual
      attributes: full, newton off
      pair build: full/bin/atomonly
      stencil: full/bin/3d
      bin: standard
Setting up Verlet run ...
  Unit style    : metal
  Current step  : 0
  Time step     : 0.002
Per MPI rank memory allocation (min/avg/max) = 3.23 | 3.23 | 3.23 Mbytes
   Step          Temp          PotEng         KinEng         TotEng         Press            Lx             Ly             Lz             Xy             Xz             Yz      
         0   750           -32240.851      123.99279     -32116.858      11057.754      23.496         23.496         97             0              0              0            
       100   866.76126     -32321.874      143.2962      -32178.577      9675.8673      23.496         23.496         97             0              0              0            
       200   803.54113     -32350.405      132.84441     -32217.561      6356.9652      23.496         23.496         97             0              0              0            
       300   790.06388     -32368.046      130.6163      -32237.43       6132.0786      23.496         23.496         97             0              0              0            
       400   777.4015      -32374.719      128.52291     -32246.196      5694.0011      23.496         23.496         97             0              0              0            
       500   776.53682     -32384.323      128.37996     -32255.943      4633.9116      23.496         23.496         97             0              0              0            
       600   748.76764     -32383.053      123.78906     -32259.264      5403.7949      23.496         23.496         97             0              0              0            
       700   757.65325     -32388.897      125.25806     -32263.638      4757.6124      23.496         23.496         97             0              0              0            
       800   763.01415     -32387.29       126.14434     -32261.145      5672.3283      23.496         23.496         97             0              0              0            
       900   766.35762     -32384.759      126.6971      -32258.062      5559.9452      23.496         23.496         97             0              0              0            
      1000   736.44813     -32388.92       121.75235     -32267.167      4817.2468      23.496         23.496         97             0              0              0            
      1100   737.86662     -32391.967      121.98686     -32269.98       4016.0085      23.496         23.496         97             0              0              0            
      1200   732.18984     -32387.658      121.04835     -32266.609      5683.7042      23.496         23.496         97             0              0              0            
      1300   753.43126     -32392.071      124.56006     -32267.511      5635.4818      23.496         23.496         97             0              0              0            
      1400   758.39605     -32389.527      125.38086     -32264.146      5943.2476      23.496         23.496         97             0              0              0            
      1500   751.63823     -32388.508      124.26363     -32264.245      6715.4512      23.496         23.496         97             0              0              0            
      1600   769.18112     -32395.874      127.16389     -32268.71       4915.3854      23.496         23.496         97             0              0              0            
      1700   749.11872     -32392.904      123.8471      -32269.057      4676.9007      23.496         23.496         97             0              0              0            
      1800   747.16026     -32393.452      123.52332     -32269.929      5255.5428      23.496         23.496         97             0              0              0            
      1900   765.89205     -32393.447      126.62013     -32266.827      5423.066       23.496         23.496         97             0              0              0            
      2000   777.58092     -32388.52       128.55257     -32259.968      4315.9066      23.496         23.496         97             0              0              0            
      2100   756.87087     -32391.717      125.12871     -32266.588      4398.7729      23.496         23.496         97             0              0              0            
      2200   791.55625     -32390.186      130.86303     -32259.323      4503.9634      23.496         23.496         97             0              0              0            
      2300   764.64372     -32388.57       126.41375     -32262.156      4458.9405      23.496         23.496         97             0              0              0            
      2400   741.24996     -32389.546      122.5462      -32267          4615.6102      23.496         23.496         97             0              0              0            
      2500   743.82723     -32389.501      122.97229     -32266.528      4606.1107      23.496         23.496         97             0              0              0            
      2600   772.51804     -32392.7        127.71556     -32264.984      3834.4645      23.496         23.496         97             0              0              0            
      2700   768.71782     -32390.865      127.08729     -32263.778      3978.2772      23.496         23.496         97             0              0              0            
      2800   768.24323     -32389.352      127.00883     -32262.344      4178.7447      23.496         23.496         97             0              0              0            
      2900   787.1968      -32392.578      130.14231     -32262.436      4275.9974      23.496         23.496         97             0              0              0            
      3000   757.69299     -32393.433      125.26463     -32268.168      4126.5005      23.496         23.496         97             0              0              0            
      3100   746.17261     -32393.631      123.36004     -32270.271      4377.1827      23.496         23.496         97             0              0              0            
      3200   745.40855     -32390.239      123.23372     -32267.006      4380.5267      23.496         23.496         97             0              0              0            
      3300   763.46237     -32393.132      126.21844     -32266.914      4554.3576      23.496         23.496         97             0              0              0            
      3400   744.39121     -32391.941      123.06553     -32268.875      4950.8393      23.496         23.496         97             0              0              0            
      3500   747.88886     -32391.087      123.64377     -32267.444      5281.1241      23.496         23.496         97             0              0              0            
      3600   755.12927     -32387.228      124.84078     -32262.387      5394.8067      23.496         23.496         97             0              0              0            
      3700   762.09137     -32391.169      125.99178     -32265.177      5134.3788      23.496         23.496         97             0              0              0            
      3800   737.73291     -32393.999      121.96475     -32272.034      4774.4126      23.496         23.496         97             0              0              0            
      3900   738.32147     -32397.997      122.06206     -32275.934      4718.5244      23.496         23.496         97             0              0              0            
      4000   758.37883     -32397.311      125.37801     -32271.933      3940.6245      23.496         23.496         97             0              0              0            
      4100   750.85392     -32395.47       124.13397     -32271.336      4467.1733      23.496         23.496         97             0              0              0            
      4200   748.08852     -32400.234      123.67678     -32276.557      4625.3631      23.496         23.496         97             0              0              0            
      4300   753.61468     -32404.087      124.59039     -32279.496      3956.3866      23.496         23.496         97             0              0              0            
      4400   727.35188     -32400.126      120.24852     -32279.878      4507.525       23.496         23.496         97             0              0              0            
      4500   730.03486     -32401.794      120.69208     -32281.102      3287.3059      23.496         23.496         97             0              0              0            
      4600   751.36276     -32399.888      124.21809     -32275.67       3912.3497      23.496         23.496         97             0              0              0            
      4700   750.77778     -32396.277      124.12138     -32272.156      4023.5386      23.496         23.496         97             0              0              0            
      4800   774.24842     -32395.649      128.00163     -32267.647      3881.7818      23.496         23.496         97             0              0              0            
      4900   750.63423     -32392.415      124.09765     -32268.317      4175.3724      23.496         23.496         97             0              0              0            
      5000   771.32472     -32392.594      127.51828     -32265.076      4253.9633      23.496         23.496         97             0              0              0            
      5100   777.1035      -32395.789      128.47365     -32267.316      5121.6422      23.496         23.496         97             0              0              0            
      5200   742.67891     -32395.88       122.78244     -32273.098      4991.3438      23.496         23.496         97             0              0              0            
      5300   773.88918     -32398.223      127.94224     -32270.281      4602.5763      23.496         23.496         97             0              0              0            
      5400   759.75238     -32399.008      125.60509     -32273.403      4628.3841      23.496         23.496         97             0              0              0            
      5500   742.59353     -32395.775      122.76833     -32273.006      4071.4637      23.496         23.496         97             0              0              0            
      5600   748.5321      -32394.957      123.75012     -32271.207      4892.3047      23.496         23.496         97             0              0              0            
      5700   741.87538     -32396.861      122.6496      -32274.211      4645.959       23.496         23.496         97             0              0              0            
      5800   722.70028     -32397.894      119.4795      -32278.415      4463.9528      23.496         23.496         97             0              0              0            
      5900   723.85518     -32397.964      119.67044     -32278.293      3962.3793      23.496         23.496         97             0              0              0            
      6000   733.35194     -32401.954      121.24047     -32280.713      3203.8674      23.496         23.496         97             0              0              0            
      6100   748.8372      -32399.008      123.80056     -32275.208      3768.9422      23.496         23.496         97             0              0              0            
      6200   778.06846     -32400.027      128.63318     -32271.394      4461.9596      23.496         23.496         97             0              0              0            
      6300   743.60204     -32394.381      122.93506     -32271.446      4398.6139      23.496         23.496         97             0              0              0            
      6400   756.57826     -32397.17       125.08034     -32272.09       4691.7407      23.496         23.496         97             0              0              0            
      6500   755.67186     -32399.181      124.93049     -32274.251      4038.7667      23.496         23.496         97             0              0              0            
      6600   768.98738     -32396.988      127.13186     -32269.856      4128.2154      23.496         23.496         97             0              0              0            
      6700   741.15416     -32395.562      122.53037     -32273.032      4947.3572      23.496         23.496         97             0              0              0            
      6800   763.3076      -32401.943      126.19286     -32275.75       3345.6575      23.496         23.496         97             0              0              0            
      6900   740.05399     -32398.683      122.34848     -32276.335      3972.4768      23.496         23.496         97             0              0              0            
      7000   744.77974     -32399.14       123.12976     -32276.011      4150.6698      23.496         23.496         97             0              0              0            
      7100   727.26448     -32392.832      120.23407     -32272.598      3792.9784      23.496         23.496         97             0              0              0            
      7200   765.50013     -32391.505      126.55533     -32264.95       4741.9116      23.496         23.496         97             0              0              0            
      7300   753.2099      -32397.22       124.52347     -32272.697      3694.5809      23.496         23.496         97             0              0              0            
      7400   736.53211     -32392.832      121.76623     -32271.066      4204.5444      23.496         23.496         97             0              0              0            
      7500   770.67222     -32399.006      127.4104      -32271.596      4228.1861      23.496         23.496         97             0              0              0            
      7600   727.66653     -32396.852      120.30054     -32276.551      3602.6122      23.496         23.496         97             0              0              0            
      7700   740.10116     -32397.792      122.35628     -32275.436      3371.0132      23.496         23.496         97             0              0              0            
      7800   726.52157     -32401.35       120.11125     -32281.239      3927.1678      23.496         23.496         97             0              0              0            
      7900   754.45617     -32403.193      124.7295      -32278.464      4829.4647      23.496         23.496         97             0              0              0            
      8000   734.66283     -32402.11       121.4572      -32280.653      3882.3018      23.496         23.496         97             0              0              0            
      8100   764.04913     -32395.013      126.31545     -32268.698      3662.7388      23.496         23.496         97             0              0              0            
      8200   754.56612     -32397.258      124.74768     -32272.51       3754.9376      23.496         23.496         97             0              0              0            
      8300   737.49136     -32397.062      121.92482     -32275.137      4226.6849      23.496         23.496         97             0              0              0            
      8400   744.3284      -32391.216      123.05514     -32268.161      4660.3073      23.496         23.496         97             0              0              0            
      8500   767.36167     -32395.939      126.86309     -32269.076      4655.5482      23.496         23.496         97             0              0              0            
      8600   759.95374     -32396.764      125.63838     -32271.126      4369.2668      23.496         23.496         97             0              0              0            
      8700   731.8467      -32395.372      120.99162     -32274.381      3837.1458      23.496         23.496         97             0              0              0            
      8800   743.22218     -32396.22       122.87226     -32273.348      4488.6997      23.496         23.496         97             0              0              0            
      8900   741.15569     -32400.733      122.53062     -32278.202      4062.03        23.496         23.496         97             0              0              0            
      9000   708.83116     -32394.287      117.18661     -32277.101      4699.64        23.496         23.496         97             0              0              0            
      9100   761.96904     -32401.076      125.97156     -32275.104      3143.4276      23.496         23.496         97             0              0              0            
      9200   718.73368     -32400.482      118.82373     -32281.658      3474.9714      23.496         23.496         97             0              0              0            
      9300   738.57863     -32400.121      122.10457     -32278.016      3027.1645      23.496         23.496         97             0              0              0            
      9400   761.60446     -32399.699      125.91129     -32273.787      3228.3668      23.496         23.496         97             0              0              0            
      9500   755.85088     -32396.832      124.96008     -32271.872      3750.1666      23.496         23.496         97             0              0              0            
      9600   759.64191     -32395.822      125.58683     -32270.236      4520.6164      23.496         23.496         97             0              0              0            
      9700   730.19378     -32396.063      120.71836     -32275.345      4513.8367      23.496         23.496         97             0              0              0            
      9800   746.63482     -32394.821      123.43645     -32271.384      4124.5217      23.496         23.496         97             0              0              0            
      9900   752.7622      -32399.927      124.44945     -32275.477      4056.9377      23.496         23.496         97             0              0              0            
     10000   760.98152     -32401.526      125.8083      -32275.718      3265.0418      23.496         23.496         97             0              0              0            
Loop time of 1294.93 on 1 procs for 10000 steps with 1280 atoms

Performance: 1.334 ns/day, 17.985 hours/ns, 7.722 timesteps/s, 9.885 katom-step/s
99.5% CPU use with 1 MPI tasks x 1 OpenMP threads

MPI task timing breakdown:
Section |  min time  |  avg time  |  max time  |%varavg| %total
---------------------------------------------------------------
Pair    | 1291.8     | 1291.8     | 1291.8     |   0.0 | 99.76
Neigh   | 1.9087     | 1.9087     | 1.9087     |   0.0 |  0.15
Comm    | 0.1642     | 0.1642     | 0.1642     |   0.0 |  0.01
Output  | 0.66989    | 0.66989    | 0.66989    |   0.0 |  0.05
Modify  | 0.32416    | 0.32416    | 0.32416    |   0.0 |  0.03
Other   |            | 0.07225    |            |       |  0.01

Nlocal:           1280 ave        1280 max        1280 min
Histogram: 1 0 0 0 0 0 0 0 0 0
Nghost:           3623 ave        3623 max        3623 min
Histogram: 1 0 0 0 0 0 0 0 0 0
Neighs:              0 ave           0 max           0 min
Histogram: 1 0 0 0 0 0 0 0 0 0
FullNghs:        92228 ave       92228 max       92228 min
Histogram: 1 0 0 0 0 0 0 0 0 0

Total # of neighbors = 92228
Ave neighs/atom = 72.053125
Neighbor list builds = 522
Dangerous builds = 0
System init for write_data ...
Setting up Verlet run ...
  Unit style    : metal
  Current step  : 0
  Time step     : 0.002
Per MPI rank memory allocation (min/avg/max) = 3.23 | 3.23 | 3.23 Mbytes
   Step          Temp          PotEng         KinEng         TotEng         Press            Lx             Ly             Lz             Xy             Xz             Yz      
         0   760.98152     -32401.526      125.8083      -32275.718      3265.0434      23.496         23.496         97             0              0              0            
       100   732.99682     -32398.258      121.18177     -32277.076      2007.9062      23.496         23.496         98.049171      0              0              0            
       200   725.80098     -32397.63       119.99212     -32277.638      1843.7211      23.496         23.496         98.523219      0              0              0            
       300   725.24089     -32396.985      119.89953     -32277.086      2277.8258      23.496         23.496         98.075833      0              0              0            
       400   767.00472     -32402.014      126.80408     -32275.21       2845.7188      23.496         23.496         97.75646       0              0              0            
       500   750.67779     -32399.109      124.10485     -32275.004      1025.5731      23.496         23.496         98.997993      0              0              0            
       600   725.42537     -32395.04       119.93003     -32275.11       2209.612       23.496         23.496         98.70725       0              0              0            
       700   758.24663     -32399.927      125.35616     -32274.571      1540.9814      23.496         23.496         99.03629       0              0              0            
       800   716.75682     -32392.23       118.49691     -32273.733      1706.5596      23.496         23.496         99.220279      0              0              0            
       900   763.54238     -32398.443      126.23167     -32272.212      2008.1634      23.496         23.496         99.081222      0              0              0            
      1000   750.37322     -32398.227      124.0545      -32274.172      1607.618       23.496         23.496         99.653919      0              0              0            
      1100   716.52271     -32394.411      118.4582      -32275.953      2125.2074      23.496         23.496         99.586093      0              0              0            
      1200   728.83862     -32395.464      120.49432     -32274.97       1735.3641      23.496         23.496         100.15654      0              0              0            
      1300   736.96659     -32397.893      121.83806     -32276.055     -35.304796      23.496         23.496         100.43495      0              0              0            
      1400   736.52845     -32396.032      121.76563     -32274.266      1994.0605      23.496         23.496         99.904638      0              0              0            
      1500   748.40766     -32397.192      123.72954     -32273.463      1086.4624      23.496         23.496         100.45055      0              0              0            
      1600   737.64882     -32396.572      121.95085     -32274.621      1438.492       23.496         23.496         100.72297      0              0              0            
      1700   716.96092     -32393.613      118.53065     -32275.082      1308.9337      23.496         23.496         101.18102      0              0              0            
      1800   722.61548     -32394.275      119.46548     -32274.81       1735.2617      23.496         23.496         100.50646      0              0              0            
      1900   718.31058     -32390.91       118.75378     -32272.156      1190.7392      23.496         23.496         100.99085      0              0              0            
      2000   749.37294     -32391.916      123.88913     -32268.027      840.18179      23.496         23.496         101.15241      0              0              0            
      2100   739.14993     -32391.083      122.19902     -32268.884      1501.3062      23.496         23.496         100.75631      0              0              0            
      2200   786.43682     -32395.049      130.01667     -32265.032      269.91323      23.496         23.496         100.99977      0              0              0            
      2300   779.03256     -32393.295      128.79257     -32264.502      1188.1688      23.496         23.496         100.56191      0              0              0            
      2400   774.35543     -32395.344      128.01932     -32267.325      1302.8223      23.496         23.496         100.37751      0              0              0            
      2500   744.31064     -32390.136      123.05221     -32267.084      1844.3144      23.496         23.496         100.39517      0              0              0            
      2600   740.42194     -32388.339      122.40931     -32265.93       384.21772      23.496         23.496         101.28455      0              0              0            
      2700   757.85092     -32389.029      125.29074     -32263.739      1359.4884      23.496         23.496         100.58969      0              0              0            
      2800   787.0137      -32390.953      130.11204     -32260.841      2105.8729      23.496         23.496         100.28612      0              0              0            
      2900   760.18525     -32385.302      125.67666     -32259.625      1219.0012      23.496         23.496         100.73434      0              0              0            
      3000   766.63694     -32387.595      126.74328     -32260.852      1585.5226      23.496         23.496         100.63499      0              0              0            
      3100   770.70886     -32389.141      127.41646     -32261.724      1310.8931      23.496         23.496         100.39408      0              0              0            
      3200   753.90179     -32385.391      124.63785     -32260.753      1566.7764      23.496         23.496         100.32861      0              0              0            
      3300   755.88921     -32385.503      124.96642     -32260.537      1716.4772      23.496         23.496         100.39538      0              0              0            
      3400   771.35701     -32390.206      127.52361     -32262.682      1873.5727      23.496         23.496         100.28657      0              0              0            
      3500   766.38285     -32388.95       126.70127     -32262.249      1959.0318      23.496         23.496         100.53645      0              0              0            
      3600   779.98024     -32388.699      128.94924     -32259.749      1072.7526      23.496         23.496         100.55672      0              0              0            
      3700   773.60273     -32386.553      127.89489     -32258.658      1541.3512      23.496         23.496         100.35803      0              0              0            
      3800   780.55045     -32390.478      129.04351     -32261.434      1901.6727      23.496         23.496         99.863232      0              0              0            
      3900   773.67345     -32391.868      127.90658     -32263.961      534.76073      23.496         23.496         100.89516      0              0              0            
      4000   750.50984     -32388.155      124.07708     -32264.078      1089.2776      23.496         23.496         100.97033      0              0              0            
      4100   740.25699     -32386.255      122.38204     -32263.873      2023.9907      23.496         23.496         99.876463      0              0              0            
      4200   741.0681      -32387.428      122.51614     -32264.912      1003.1303      23.496         23.496         100.05557      0              0              0            
      4300   754.6242      -32391.801      124.75728     -32267.044      428.52566      23.496         23.496         100.27146      0              0              0            
      4400   730.26616     -32390.053      120.73032     -32269.323      2334.5133      23.496         23.496         100.28129      0              0              0            
      4500   742.86755     -32393.679      122.81363     -32270.865      744.57737      23.496         23.496         101.16983      0              0              0            
      4600   741.85033     -32393.311      122.64546     -32270.666      874.50642      23.496         23.496         101.1246       0              0              0            
      4700   754.167       -32394.174      124.6817      -32269.493      1876.7352      23.496         23.496         100.247        0              0              0            
      4800   760.67983     -32393.606      125.75842     -32267.848      2700.1289      23.496         23.496         99.814542      0              0              0            
      4900   763.48817     -32391.891      126.22271     -32265.668      1212.2845      23.496         23.496         100.82448      0              0              0            
      5000   755.6111      -32388.164      124.92044     -32263.243      916.25715      23.496         23.496         101.51381      0              0              0            
      5100   752.20731     -32386.768      124.35771     -32262.41       1729.0801      23.496         23.496         100.85428      0              0              0            
      5200   764.12053     -32390.857      126.32725     -32264.53       1477.0982      23.496         23.496         100.68225      0              0              0            
      5300   757.91602     -32389.38       125.3015      -32264.078      961.32778      23.496         23.496         101.28398      0              0              0            
      5400   764.35022     -32391.798      126.36523     -32265.433      501.01474      23.496         23.496         101.46519      0              0              0            
      5500   774.48588     -32395.356      128.04089     -32267.315      977.34441      23.496         23.496         101.21793      0              0              0            
      5600   743.20669     -32389.564      122.8697      -32266.695      1500.259       23.496         23.496         101.02791      0              0              0            
      5700   757.73717     -32393.041      125.27193     -32267.769      1061.1924      23.496         23.496         100.98108      0              0              0            
      5800   738.96311     -32391.592      122.16813     -32269.424      749.50037      23.496         23.496         100.88173      0              0              0            
      5900   737.82933     -32393.365      121.98069     -32271.384      1829.3038      23.496         23.496         100.29163      0              0              0            
      6000   760.58434     -32399.017      125.74264     -32273.274      1331.7838      23.496         23.496         100.47688      0              0              0            
      6100   730.03506     -32392.632      120.69212     -32271.94       1278.1321      23.496         23.496         101.00026      0              0              0            
      6200   750.97672     -32394.476      124.15427     -32270.321      1256.8982      23.496         23.496         100.73559      0              0              0            
      6300   742.62678     -32392.331      122.77383     -32269.557      1266.225       23.496         23.496         100.73093      0              0              0            
      6400   747.16327     -32392.6        123.52382     -32269.076      1698.8971      23.496         23.496         101.05882      0              0              0            
      6500   754.90292     -32393.439      124.80336     -32268.636      1152.4863      23.496         23.496         100.84552      0              0              0            
      6600   743.99242     -32389.635      122.9996      -32266.635      1738.9564      23.496         23.496         100.40384      0              0              0            
      6700   771.99914     -32395.787      127.62977     -32268.157      757.75591      23.496         23.496         101.11713      0              0              0            
      6800   752.31427     -32393.637      124.3754      -32269.261      112.45108      23.496         23.496         101.38727      0              0              0            
      6900   747.62721     -32394.103      123.60052     -32270.503      1845.4004      23.496         23.496         100.5712       0              0              0            
      7000   742.71728     -32392.826      122.78879     -32270.037      1697.8139      23.496         23.496         100.9225       0              0              0            
      7100   737.66663     -32391.701      121.9538      -32269.748      976.49609      23.496         23.496         100.87119      0              0              0            
      7200   761.69747     -32391.547      125.92666     -32265.62       1992.3986      23.496         23.496         101.04053      0              0              0            
      7300   742.66743     -32389.33       122.78055     -32266.549      2435.2217      23.496         23.496         101.36804      0              0              0            
      7400   761.85643     -32392.373      125.95294     -32266.42       1663.0145      23.496         23.496         101.34434      0              0              0            
      7500   734.37116     -32387.251      121.40898     -32265.842      1794.1682      23.496         23.496         101.07191      0              0              0            
      7600   754.82096     -32393.563      124.78981     -32268.773      1545.9587      23.496         23.496         100.97411      0              0              0            
      7700   742.47408     -32391.308      122.74858     -32268.559      1653.678       23.496         23.496         101.04388      0              0              0            
      7800   738.47701     -32394.667      122.08777     -32272.579      781.7683       23.496         23.496         101.11309      0              0              0            
      7900   746.02092     -32395.193      123.33496     -32271.858      1811.6392      23.496         23.496         100.24586      0              0              0            
      8000   732.97661     -32395.646      121.17842     -32274.467      937.50837      23.496         23.496         100.95293      0              0              0            
      8100   736.08664     -32392.09       121.69259     -32270.397      905.39581      23.496         23.496         100.83636      0              0              0            
      8200   747.52363     -32394.17       123.58339     -32270.587      675.39767      23.496         23.496         100.75444      0              0              0            
      8300   759.20605     -32397.86       125.51477     -32272.345      850.07175      23.496         23.496         100.60943      0              0              0            
      8400   752.83712     -32394.507      124.46184     -32270.045      1725.4887      23.496         23.496         100.4014       0              0              0            
      8500   763.15838     -32395.342      126.16819     -32269.174      799.93239      23.496         23.496         101.2807       0              0              0            
      8600   760.63801     -32394.411      125.75151     -32268.66       1296.4927      23.496         23.496         100.62477      0              0              0            
      8700   758.24219     -32395.838      125.35542     -32270.483      2230.5063      23.496         23.496         99.763705      0              0              0            
      8800   762.20633     -32396.241      126.01079     -32270.231      1583.5398      23.496         23.496         99.808808      0              0              0            
      8900   746.06965     -32396.318      123.34301     -32272.975      892.25225      23.496         23.496         99.94284       0              0              0            
      9000   736.31109     -32395.703      121.72969     -32273.973      1776.8096      23.496         23.496         99.726541      0              0              0            
      9100   746.33956     -32396.861      123.38764     -32273.474      817.80385      23.496         23.496         100.01031      0              0              0            
      9200   735.7306      -32397.672      121.63372     -32276.039      1694.221       23.496         23.496         99.537728      0              0              0            
      9300   742.45459     -32398.58       122.74536     -32275.834      2009.5217      23.496         23.496         99.230126      0              0              0            
      9400   754.95315     -32400.467      124.81167     -32275.656      1054.3332      23.496         23.496         99.627256      0              0              0            
      9500   750.2289      -32399.637      124.03064     -32275.606      1517.8985      23.496         23.496         99.534234      0              0              0            
      9600   744.36852     -32396.757      123.06178     -32273.696      1521.9862      23.496         23.496         100.05262      0              0              0            
      9700   746.67151     -32398.155      123.44252     -32274.712      987.27018      23.496         23.496         100.32545      0              0              0            
      9800   749.42986     -32398.103      123.89854     -32274.205      1648.1698      23.496         23.496         100.00662      0              0              0            
      9900   748.91501     -32398.75       123.81342     -32274.936      2235.3797      23.496         23.496         99.949975      0              0              0            
     10000   738.04119     -32396.48       122.01572     -32274.464      441.09751      23.496         23.496         100.89639      0              0              0            
     10100   733.43633     -32397.871      121.25443     -32276.617      622.84216      23.496         23.496         100.394        0              0              0            
     10200   727.66679     -32393.725      120.30058     -32273.424      1648.3191      23.496         23.496         99.960114      0              0              0            
     10300   732.3243      -32395.982      121.07058     -32274.912      959.03763      23.496         23.496         100.55824      0              0              0            
     10400   730.32648     -32394.389      120.74029     -32273.649      2185.3838      23.496         23.496         100.67271      0              0              0            
     10500   732.17663     -32394.534      121.04617     -32273.488      753.9887       23.496         23.496         101.19464      0              0              0            
     10600   750.15386     -32395.98       124.01823     -32271.962      737.75136      23.496         23.496         101.07538      0              0              0            
     10700   757.21652     -32396.764      125.18586     -32271.578      1318.0886      23.496         23.496         100.26213      0              0              0            
     10800   733.14355     -32393.17       121.20602     -32271.964      1989.4601      23.496         23.496         100.31798      0              0              0            
     10900   737.62679     -32393.348      121.94721     -32271.401      955.61562      23.496         23.496         100.88427      0              0              0            
     11000   758.84008     -32398.201      125.45427     -32272.746      2244.5512      23.496         23.496         99.95707       0              0              0            
     11100   752.27722     -32398.901      124.36927     -32274.531      1556.904       23.496         23.496         100.20939      0              0              0            
     11200   743.88999     -32397.73       122.98266     -32274.748      1368.4066      23.496         23.496         100.45787      0              0              0            
     11300   729.6768      -32396.373      120.63289     -32275.74       317.59761      23.496         23.496         100.81623      0              0              0            
     11400   752.56756     -32400.712      124.41727     -32276.295      1027.8423      23.496         23.496         100.41032      0              0              0            
     11500   762.38635     -32400.692      126.04055     -32274.651      1480.3769      23.496         23.496         100.15536      0              0              0            
     11600   748.1228      -32397.548      123.68245     -32273.865      711.82557      23.496         23.496         100.37232      0              0              0            
     11700   731.30554     -32394.394      120.90216     -32273.492      1005.1594      23.496         23.496         100.8626       0              0              0            
     11800   746.17859     -32399.11       123.36102     -32275.749      1997.3161      23.496         23.496         100.2597       0              0              0            
     11900   739.54588     -32399.693      122.26448     -32277.429      2147.9644      23.496         23.496         99.762944      0              0              0            
     12000   733.41758     -32399.007      121.25133     -32277.756      1778.3569      23.496         23.496         100.06045      0              0              0            
     12100   735.89373     -32396.745      121.66069     -32275.084      1521.8315      23.496         23.496         100.60016      0              0              0            
     12200   734.26865     -32394.458      121.39203     -32273.066      1290.8186      23.496         23.496         100.44292      0              0              0            
     12300   754.68561     -32398.547      124.76744     -32273.779      1461.0477      23.496         23.496         100.03086      0              0              0            
     12400   750.05764     -32397.367      124.00232     -32273.365      1943.1404      23.496         23.496         99.584573      0              0              0            
     12500   744.6326      -32395.757      123.10544     -32272.651      1841.4552      23.496         23.496         100.14818      0              0              0            
     12600   724.00703     -32389.31       119.69554     -32269.614      1480.5704      23.496         23.496         100.74602      0              0              0            
     12700   735.57297     -32393.921      121.60766     -32272.313      1367.8395      23.496         23.496         100.14788      0              0              0            
     12800   760.89493     -32395.867      125.79398     -32270.073      2821.0778      23.496         23.496         98.82076       0              0              0            
     12900   749.02173     -32395.205      123.83106     -32271.374      2231.4689      23.496         23.496         99.168151      0              0              0            
     13000   732.37074     -32391.584      121.07826     -32270.506      1587.8735      23.496         23.496         99.610533      0              0              0            
     13100   732.6022      -32394.505      121.11652     -32273.389      1918.7551      23.496         23.496         99.810966      0              0              0            
     13200   743.03551     -32396.127      122.8414      -32273.286      2808.4741      23.496         23.496         99.393756      0              0              0            
     13300   761.72667     -32402.054      125.93149     -32276.123      1179.169       23.496         23.496         99.656368      0              0              0            
     13400   723.60056     -32395.259      119.62834     -32275.63       838.65594      23.496         23.496         100.14595      0              0              0            
     13500   755.48604     -32399.469      124.89977     -32274.569      1778.1198      23.496         23.496         99.859037      0              0              0            
     13600   735.51157     -32395.037      121.59751     -32273.439      1122.1833      23.496         23.496         100.07634      0              0              0            
     13700   729.88486     -32396.659      120.66728     -32275.991      580.67602      23.496         23.496         100.28644      0              0              0            
     13800   733.08227     -32397.803      121.19589     -32276.607      1524.361       23.496         23.496         100.31036      0              0              0            
     13900   734.3058      -32396.85       121.39817     -32275.451      1450.3295      23.496         23.496         100.68806      0              0              0            
     14000   754.39959     -32400.151      124.72015     -32275.431      1757.9713      23.496         23.496         100.45715      0              0              0            
     14100   721.83142     -32393.559      119.33586     -32274.223      1501.9825      23.496         23.496         100.35934      0              0              0            
     14200   749.29109     -32398.871      123.87559     -32274.995      2217.0175      23.496         23.496         99.850789      0              0              0            
     14300   734.40332     -32396.223      121.41429     -32274.809      494.2214       23.496         23.496         100.35341      0              0              0            
     14400   752.66601     -32395.765      124.43355     -32271.331      1843.6978      23.496         23.496         99.784181      0              0              0            
     14500   756.36997     -32397.971      125.0459      -32272.925      1324.9634      23.496         23.496         100.02023      0              0              0            
     14600   735.18117     -32395.969      121.54289     -32274.427      1498.7526      23.496         23.496         99.995484      0              0              0            
     14700   772.49897     -32400.808      127.71241     -32273.095      1949.4833      23.496         23.496         99.456104      0              0              0            
     14800   720.74869     -32391.925      119.15686     -32272.768      2038.4353      23.496         23.496         100.09148      0              0              0            
     14900   752.33245     -32398.117      124.3784      -32273.739      676.567        23.496         23.496         101.07162      0              0              0            
     15000   745.60474     -32397.815      123.26615     -32274.548      1463.3476      23.496         23.496         99.926097      0              0              0            
     15100   756.50603     -32400.838      125.06839     -32275.77       1387.5492      23.496         23.496         99.626977      0              0              0            
     15200   761.87385     -32400.997      125.95582     -32275.042      1358.38        23.496         23.496         100.09954      0              0              0            
     15300   756.14924     -32402.339      125.00941     -32277.329      980.84925      23.496         23.496         100.09441      0              0              0            
     15400   742.40395     -32398.953      122.73699     -32276.216      1639.1042      23.496         23.496         99.266069      0              0              0            
     15500   745.95104     -32401.042      123.32341     -32277.719      2609.9663      23.496         23.496         99.050163      0              0              0            
     15600   746.21208     -32400.838      123.36656     -32277.471      1886.5854      23.496         23.496         99.434064      0              0              0            
     15700   729.35724     -32399.953      120.58006     -32279.373      1177.6547      23.496         23.496         99.347527      0              0              0            
     15800   739.55523     -32400.478      122.26603     -32278.212      1334.0114      23.496         23.496         99.282036      0              0              0            
     15900   744.63253     -32400.389      123.10542     -32277.284      634.024        23.496         23.496         99.475341      0              0              0            
     16000   746.08988     -32401.954      123.34636     -32278.608      2087.2752      23.496         23.496         98.510183      0              0              0            
     16100   730.79644     -32399.706      120.81799     -32278.888      1560.284       23.496         23.496         98.973737      0              0              0            
     16200   737.17637     -32400.879      121.87274     -32279.007      559.43788      23.496         23.496         99.589769      0              0              0            
     16300   744.27187     -32401.981      123.0458      -32278.936      2200.5109      23.496         23.496         98.631424      0              0              0            
     16400   752.04758     -32400.692      124.33131     -32276.36       1181.9846      23.496         23.496         98.886228      0              0              0            
     16500   746.80958     -32397.714      123.46534     -32274.249      720.3925       23.496         23.496         99.386604      0              0              0            
     16600   754.87448     -32397.797      124.79866     -32272.998      1289.534       23.496         23.496         99.150805      0              0              0            
     16700   754.71724     -32397.818      124.77267     -32273.045      2123.6728      23.496         23.496         98.987611      0              0              0            
     16800   744.98542     -32395.954      123.16376     -32272.79       1447.4449      23.496         23.496         99.32741       0              0              0            
     16900   745.85527     -32398.518      123.30757     -32275.21       1756.6733      23.496         23.496         99.285719      0              0              0            
     17000   730.75241     -32396.828      120.81071     -32276.018      2048.8548      23.496         23.496         99.536179      0              0              0            
     17100   743.14802     -32394.841      122.86        -32271.981      1237.6234      23.496         23.496         99.838938      0              0              0            
     17200   748.45329     -32395.503      123.73709     -32271.766      866.65333      23.496         23.496         99.843532      0              0              0            
     17300   739.31637     -32394.124      122.22654     -32271.898      1484.7493      23.496         23.496         99.657974      0              0              0            
     17400   758.78672     -32398.494      125.44545     -32273.048      1967.4615      23.496         23.496         99.578342      0              0              0            
     17500   721.14794     -32391.78       119.22286     -32272.557      528.94872      23.496         23.496         100.58713      0              0              0            
     17600   736.11416     -32396.024      121.69714     -32274.326      1381.4684      23.496         23.496         99.793461      0              0              0            
     17700   760.33238     -32397.284      125.70098     -32271.583      2137.5478      23.496         23.496         99.464709      0              0              0            
     17800   749.58894     -32397.364      123.92484     -32273.439      1465.5785      23.496         23.496         99.925841      0              0              0            
     17900   729.36554     -32394.704      120.58143     -32274.123      1065.604       23.496         23.496         100.11351      0              0              0            
     18000   769.77231     -32401.798      127.26163     -32274.537      1472.971       23.496         23.496         99.752796      0              0              0            
     18100   762.65869     -32399.587      126.08558     -32273.502      713.7053       23.496         23.496         100.15975      0              0              0            
     18200   745.01965     -32398.642      123.16942     -32275.473      1083.29        23.496         23.496         100.32201      0              0              0            
     18300   729.70942     -32398.827      120.63828     -32278.189      844.15796      23.496         23.496         100.61322      0              0              0            
     18400   723.00953     -32396.599      119.53063     -32277.068      2461.371       23.496         23.496         99.86919       0              0              0            
     18500   734.54318     -32397.8        121.43741     -32276.363      1490.8705      23.496         23.496         100.34153      0              0              0            
     18600   729.11323     -32397.02       120.53971     -32276.48       1492.1488      23.496         23.496         100.48974      0              0              0            
     18700   740.94807     -32397.449      122.4963      -32274.953      1092.3791      23.496         23.496         100.20686      0              0              0            
     18800   745.87454     -32396.682      123.31076     -32273.371      1600.6256      23.496         23.496         100.25151      0              0              0            
     18900   722.22403     -32393.863      119.40077     -32274.463     -167.65201      23.496         23.496         101.01853      0              0              0            
     19000   732.81241     -32393.966      121.15128     -32272.815      1701.4498      23.496         23.496         100.25403      0              0              0            
     19100   738.96301     -32396.313      122.16812     -32274.144      2485.8236      23.496         23.496         99.828896      0              0              0            
     19200   749.39879     -32397.256      123.8934      -32273.362      690.3314       23.496         23.496         100.17128      0              0              0            
     19300   749.59242     -32397.278      123.92541     -32273.352      1651.2721      23.496         23.496         100.03102      0              0              0            
     19400   778.14299     -32403.78       128.6455      -32275.134      1723.9129      23.496         23.496         99.894465      0              0              0            
     19500   747.54951     -32400.568      123.58767     -32276.98       940.17795      23.496         23.496         99.885334      0              0              0            
     19600   738.56389     -32398.294      122.10213     -32276.192      1338.275       23.496         23.496         99.582309      0              0              0            
     19700   742.67679     -32399.224      122.78209     -32276.442      2216.9505      23.496         23.496         99.017852      0              0              0            
     19800   743.12105     -32399.513      122.85554     -32276.657      2729.3109      23.496         23.496         98.906719      0              0              0            
     19900   741.13754     -32399.84       122.52762     -32277.312      1340.2223      23.496         23.496         99.636052      0              0              0            
     20000   741.38977     -32398.724      122.56932     -32276.155      2233.3637      23.496         23.496         99.075331      0              0              0            
     20100   743.94822     -32399.255      122.99229     -32276.263      874.80171      23.496         23.496         99.590221      0              0              0            
     20200   737.61601     -32398.062      121.94543     -32276.117      750.06055      23.496         23.496         99.994305      0              0              0            
     20300   750.0707      -32399.877      124.00448     -32275.872      794.29735      23.496         23.496         99.588434      0              0              0            
     20400   743.78946     -32400.976      122.96604     -32278.01       1726.0818      23.496         23.496         99.223748      0              0              0            
     20500   749.23749     -32402.039      123.86673     -32278.172      1954.3328      23.496         23.496         99.344845      0              0              0            
     20600   725.44027     -32397.442      119.93249     -32277.509      1567.2079      23.496         23.496         99.476557      0              0              0            
     20700   703.91589     -32393.364      116.374       -32276.99       926.19178      23.496         23.496         99.633769      0              0              0            
     20800   730.10732     -32398.414      120.70406     -32277.71       1481.0483      23.496         23.496         99.442249      0              0              0            
     20900   732.55001     -32394.982      121.1079      -32273.874      405.17422      23.496         23.496         100.30749      0              0              0            
     21000   750.99672     -32395.059      124.15757     -32270.901      1385.1282      23.496         23.496         100.3637       0              0              0            
     21100   746.96215     -32395.312      123.49056     -32271.822      2478.7986      23.496         23.496         99.789128      0              0              0            
     21200   743.03509     -32396.832      122.84133     -32273.991      632.61631      23.496         23.496         100.43997      0              0              0            
     21300   736.44123     -32396.906      121.75121     -32275.155      1665.1067      23.496         23.496         100.43486      0              0              0            
     21400   747.66221     -32396.312      123.6063      -32272.705      785.5453       23.496         23.496         100.92628      0              0              0            
     21500   772.46917     -32401.15       127.70748     -32273.442      488.12038      23.496         23.496         100.78342      0              0              0            
     21600   762.12551     -32399.125      125.99743     -32273.128      1935.5553      23.496         23.496         100.30975      0              0              0            
     21700   733.79896     -32392.984      121.31438     -32271.67       287.79695      23.496         23.496         101.64804      0              0              0            
     21800   741.23362     -32396.053      122.5435      -32273.509      361.82207      23.496         23.496         101.17355      0              0              0            
     21900   751.7584      -32399.447      124.2835      -32275.163      2464.2485      23.496         23.496         99.783991      0              0              0            
     22000   724.98611     -32396.959      119.8574      -32277.101      666.31601      23.496         23.496         100.75126      0              0              0            
     22100   750.03275     -32400.803      123.99821     -32276.805      1477.5873      23.496         23.496         100.73129      0              0              0            
     22200   727.51293     -32395.096      120.27515     -32274.821      2080.3096      23.496         23.496         100.09199      0              0              0            
     22300   742.92673     -32395.242      122.82342     -32272.418      1404.2079      23.496         23.496         100.49721      0              0              0            
     22400   749.51496     -32396.35       123.9126      -32272.438      562.99544      23.496         23.496         100.66303      0              0              0            
     22500   736.27313     -32396.327      121.72342     -32274.604      2841.5373      23.496         23.496         99.837954      0              0              0            
     22600   723.95162     -32398.105      119.68638     -32278.419      1473.8474      23.496         23.496         100.14662      0              0              0            
     22700   734.64602     -32398.238      121.45442     -32276.784      1474.9949      23.496         23.496         100.19711      0              0              0            
     22800   752.67981     -32398.737      124.43583     -32274.301      2009.625       23.496         23.496         99.79446       0              0              0            
     22900   731.97068     -32395.444      121.01212     -32274.432      699.34972      23.496         23.496         100.35544      0              0              0            
     23000   746.51368     -32398.194      123.41642     -32274.777      1783.4446      23.496         23.496         100.23145      0              0              0            
     23100   754.41196     -32398.23       124.7222      -32273.507      2589.5896      23.496         23.496         99.315257      0              0              0            
     23200   754.03302     -32397.241      124.65955     -32272.582      583.80934      23.496         23.496         99.986824      0              0              0            
     23300   743.69382     -32393.508      122.95023     -32270.558      407.45869      23.496         23.496         100.84312      0              0              0            
     23400   766.15553     -32395.991      126.66369     -32269.327      992.85369      23.496         23.496         100.12962      0              0              0            
     23500   734.92534     -32390.879      121.5006      -32269.379      2721.4696      23.496         23.496         99.301693      0              0              0            
     23600   753.74695     -32391.806      124.61225     -32267.194      18.955629      23.496         23.496         100.26578      0              0              0            
     23700   771.93965     -32393.221      127.61994     -32265.601      1170.8634      23.496         23.496         100.18637      0              0              0            
     23800   767.89229     -32392.034      126.95081     -32265.084      1571.4064      23.496         23.496         99.953689      0              0              0            
     23900   760.29115     -32390.609      125.69416     -32264.915      1427.4686      23.496         23.496         99.555028      0              0              0            
     24000   748.28341     -32390.576      123.709       -32266.867      588.73795      23.496         23.496         100.28068      0              0              0            
     24100   786.36436     -32394.554      130.00469     -32264.549      1404.0255      23.496         23.496         100.09501      0              0              0            
     24200   757.78701     -32392.326      125.28017     -32267.046      2471.9058      23.496         23.496         99.815539      0              0              0            
     24300   741.27245     -32388.748      122.54992     -32266.198      1473.6807      23.496         23.496         100.12389      0              0              0            
     24400   754.41508     -32393.397      124.72271     -32268.674      2259.2144      23.496         23.496         99.63427       0              0              0            
     24500   784.26168     -32398.798      129.65706     -32269.141      1109.8604      23.496         23.496         100.32882      0              0              0            
     24600   732.32886     -32392.202      121.07134     -32271.131      1313.51        23.496         23.496         100.58811      0              0              0            
     24700   765.79616     -32397.955      126.60427     -32271.35       2914.0934      23.496         23.496         99.499762      0              0              0            
     24800   759.85286     -32398.032      125.62171     -32272.41       1086.5664      23.496         23.496         99.862882      0              0              0            
     24900   730.01776     -32393.079      120.68926     -32272.39       825.80424      23.496         23.496         100.61323      0              0              0            
     25000   760.90355     -32398.552      125.79541     -32272.757      1272.3104      23.496         23.496         100.55278      0              0              0            
     25100   730.36514     -32396.023      120.74669     -32275.277      1769.7422      23.496         23.496         100.53578      0              0              0            
     25200   727.72486     -32394.388      120.31019     -32274.078      901.83199      23.496         23.496         101.04555      0              0              0            
     25300   753.39149     -32397.612      124.55349     -32273.058      990.98621      23.496         23.496         101.26888      0              0              0            
     25400   755.20252     -32396.481      124.85289     -32271.628      1520.5194      23.496         23.496         100.76085      0              0              0            
     25500   759.35548     -32395.396      125.53948     -32269.857      2623.6907      23.496         23.496         100.2062       0              0              0            
     25600   758.90661     -32393.65       125.46527     -32268.185      619.7535       23.496         23.496         101.10125      0              0              0            
     25700   750.79141     -32393.428      124.12363     -32269.304      1168.8184      23.496         23.496         101.0985       0              0              0            
     25800   760.71325     -32396.059      125.76395     -32270.295      358.68565      23.496         23.496         100.94345      0              0              0            
     25900   756.53803     -32394.669      125.07369     -32269.595      1397.7273      23.496         23.496         100.74749      0              0              0            
     26000   766.72412     -32396.666      126.75769     -32269.908      1156.3623      23.496         23.496         100.96908      0              0              0            
     26100   743.61076     -32394.007      122.9365      -32271.071      1236.334       23.496         23.496         100.59438      0              0              0            
     26200   770.9982      -32398.623      127.4643      -32271.159      1646.0759      23.496         23.496         100.15021      0              0              0            
     26300   751.29192     -32395.197      124.20638     -32270.99       1027.2821      23.496         23.496         100.21324      0              0              0            
     26400   724.65337     -32391.658      119.8024      -32271.855      924.48097      23.496         23.496         100.57211      0              0              0            
     26500   760.86349     -32398.144      125.78879     -32272.355      1712.3924      23.496         23.496         100.04087      0              0              0            
     26600   740.96882     -32393.451      122.49973     -32270.951      1247.7821      23.496         23.496         100.00311      0              0              0            
     26700   753.23274     -32396.883      124.52724     -32272.356      532.79191      23.496         23.496         100.48157      0              0              0            
     26800   762.87419     -32396.891      126.1212      -32270.77       1796.2027      23.496         23.496         99.852382      0              0              0            
     26900   756.04649     -32394.14       124.99242     -32269.147      1310.4279      23.496         23.496         99.927992      0              0              0            
     27000   742.35078     -32392.334      122.7282      -32269.606      2114.5676      23.496         23.496         100.21941      0              0              0            
     27100   744.30411     -32394.244      123.05113     -32271.193      1524.0813      23.496         23.496         100.90621      0              0              0            
     27200   767.01823     -32397.216      126.80631     -32270.41       626.98142      23.496         23.496         100.43176      0              0              0            
     27300   763.94551     -32396.899      126.29832     -32270.601      2798.2821      23.496         23.496         99.560123      0              0              0            
     27400   755.25083     -32397.759      124.86088     -32272.898      558.70191      23.496         23.496         100.66317      0              0              0            
     27500   740.3163      -32395.008      122.39185     -32272.616      1221.3758      23.496         23.496         100.35417      0              0              0            
     27600   745.05129     -32394.518      123.17466     -32271.343      1379.543       23.496         23.496         99.875723      0              0              0            
     27700   743.76528     -32394.816      122.96205     -32271.854      1462.4919      23.496         23.496         100.14727      0              0              0            
     27800   739.46137     -32392.986      122.25051     -32270.735      913.28554      23.496         23.496         100.12552      0              0              0            
     27900   770.08361     -32396.312      127.31309     -32268.999      701.37116      23.496         23.496         100.33656      0              0              0            
     28000   780.91754     -32397.887      129.1042      -32268.783      1985.9521      23.496         23.496         100.21112      0              0              0            
     28100   760.69826     -32393.72       125.76147     -32267.959      855.87701      23.496         23.496         100.57984      0              0              0            
     28200   731.0957      -32386.419      120.86747     -32265.551      2167.1065      23.496         23.496         100.09698      0              0              0            
     28300   796.92765     -32395.773      131.75105     -32264.022      1996.2288      23.496         23.496         100.05858      0              0              0            
     28400   764.228       -32393.201      126.34502     -32266.856      1658.5705      23.496         23.496         100.17263      0              0              0            
     28500   752.16151     -32392.84       124.35014     -32268.489      1831.6622      23.496         23.496         100.14101      0              0              0            
     28600   744.82473     -32392.768      123.1372      -32269.631      1300.3214      23.496         23.496         99.952829      0              0              0            
     28700   764.80139     -32396.251      126.43982     -32269.811      1694.9482      23.496         23.496         99.709796      0              0              0            
     28800   774.13327     -32397.918      127.9826      -32269.935      1876.7278      23.496         23.496         99.940905      0              0              0            
     28900   737.64969     -32393.411      121.951       -32271.46       1739.0264      23.496         23.496         100.05892      0              0              0            
     29000   771.4963      -32399.356      127.54664     -32271.809      1481.6988      23.496         23.496         100.0302       0              0              0            
     29100   774.4221      -32395.511      128.03035     -32267.481      2577.7841      23.496         23.496         99.707623      0              0              0            
     29200   764.31819     -32394.43       126.35993     -32268.07       1194.304       23.496         23.496         100.43094      0              0              0            
     29300   783.55833     -32398.682      129.54078     -32269.141      1002.446       23.496         23.496         100.39507      0              0              0            
     29400   757.99619     -32397.162      125.31475     -32271.847      961.42166      23.496         23.496         100.1687       0              0              0            
     29500   755.99996     -32396.692      124.98473     -32271.707      2831.0162      23.496         23.496         99.403976      0              0              0            
     29600   765.97196     -32398.515      126.63334     -32271.882      2101.4534      23.496         23.496         99.523743      0              0              0            
     29700   760.99018     -32397.603      125.80973     -32271.794      1285.7579      23.496         23.496         99.972456      0              0              0            
     29800   758.85522     -32395.474      125.45677     -32270.017      1209.0129      23.496         23.496         99.969084      0              0              0            
     29900   747.31296     -32396.762      123.54856     -32273.213      1481.452       23.496         23.496         99.752326      0              0              0            
     30000   751.9915      -32397.74       124.32204     -32273.418      1221.1034      23.496         23.496         99.408043      0              0              0            
     30100   753.12179     -32397.12       124.5089      -32272.611      1641.4547      23.496         23.496         99.597204      0              0              0            
     30200   737.32616     -32395.539      121.89751     -32273.642      1982.8311      23.496         23.496         100.05098      0              0              0            
     30300   724.19517     -32393.69       119.72664     -32273.963      1071.5002      23.496         23.496         100.3298       0              0              0            
     30400   746.56613     -32398.237      123.42509     -32274.812      2304.5255      23.496         23.496         99.771377      0              0              0            
     30500   744.59856     -32399.15       123.09981     -32276.051      1306.5045      23.496         23.496         100.31434      0              0              0            
     30600   740.01123     -32398.59       122.34141     -32276.249      952.51446      23.496         23.496         100.25241      0              0              0            
     30700   730.5992      -32396.289      120.78538     -32275.504      2109.2362      23.496         23.496         99.472928      0              0              0            
     30800   759.56322     -32400.484      125.57382     -32274.91       1350.4312      23.496         23.496         99.81373       0              0              0            
     30900   747.76979     -32396.423      123.62409     -32272.799      1764.2165      23.496         23.496         100.23099      0              0              0            
     31000   775.47534     -32398.79       128.20447     -32270.585      1774.0336      23.496         23.496         99.898211      0              0              0            
     31100   741.15305     -32394.765      122.53018     -32272.234      735.77353      23.496         23.496         100.55311      0              0              0            
     31200   753.42599     -32394.85       124.55919     -32270.291      1826.9058      23.496         23.496         100.10633      0              0              0            
     31300   744.80301     -32394.114      123.13361     -32270.98       2419.886       23.496         23.496         99.701494      0              0              0            
     31400   743.54025     -32393.904      122.92484     -32270.979      1365.6915      23.496         23.496         99.926787      0              0              0            
     31500   767.66408     -32396.593      126.91309     -32269.68       1521.4859      23.496         23.496         99.759976      0              0              0            
     31600   749.21133     -32394.834      123.86241     -32270.971      1260.7075      23.496         23.496         99.973923      0              0              0            
     31700   748.81372     -32395.189      123.79667     -32271.393      2165.72        23.496         23.496         99.728152      0              0              0            
     31800   763.80014     -32397.401      126.27428     -32271.127      1940.983       23.496         23.496         99.709516      0              0              0            
     31900   766.76432     -32398.381      126.76433     -32271.616      1602.0187      23.496         23.496         99.474438      0              0              0            
     32000   745.29251     -32394.68       123.21453     -32271.465      1933.7216      23.496         23.496         99.478534      0              0              0            
     32100   749.54104     -32391.422      123.91692     -32267.505      1251.5162      23.496         23.496         100.11108      0              0              0            
     32200   737.65463     -32389.236      121.95181     -32267.284      2133.1487      23.496         23.496         100.2084       0              0              0            
     32300   769.24415     -32394.107      127.17431     -32266.933      879.44868      23.496         23.496         100.16565      0              0              0            
     32400   744.90089     -32394.634      123.14979     -32271.484      2077.9558      23.496         23.496         99.804844      0              0              0            
     32500   778.94406     -32397.551      128.77793     -32268.773      2270.4387      23.496         23.496         99.95413       0              0              0            
     32600   751.70092     -32392.752      124.274       -32268.478      726.1952       23.496         23.496         100.60302      0              0              0            
     32700   757.29326     -32393.509      125.19854     -32268.311      1921.0976      23.496         23.496         100.21109      0              0              0            
     32800   766.00715     -32394.64       126.63916     -32268.001      1648.0262      23.496         23.496         100.17698      0              0              0            
     32900   776.91568     -32399.014      128.44259     -32270.571      1315.5101      23.496         23.496         100.69113      0              0              0            
     33000   731.69624     -32392.159      120.96675     -32271.192      1645.2125      23.496         23.496         100.80918      0              0              0            
     33100   747.70421     -32396.91       123.61325     -32273.296      912.17958      23.496         23.496         100.77073      0              0              0            
[...]
    819200   743.6098      -32413.832      122.93634     -32290.896      1175.1267      23.496         23.496         99.171193      0              0              0            
    819300   792.03005     -32419.487      130.94136     -32288.546      1465.5062      23.496         23.496         98.774364      0              0              0            
    819400   758.71335     -32414.719      125.43332     -32289.286      1625.1121      23.496         23.496         98.698671      0              0              0            
    819500   762.24168     -32414.198      126.01663     -32288.181      1839.7779      23.496         23.496         98.77151       0              0              0            
    819600   737.88877     -32412.605      121.99052     -32290.614      2128.436       23.496         23.496         98.684584      0              0              0            
    819700   780.9275      -32420.066      129.10584     -32290.96       1646.2058      23.496         23.496         98.53262       0              0              0            
    819800   752.65918     -32414.21       124.43242     -32289.777      1952.5364      23.496         23.496         99.122961      0              0              0            
    819900   754.52658     -32413.721      124.74114     -32288.98       1281.694       23.496         23.496         99.45188       0              0              0            
    820000   770.27962     -32416.105      127.3455      -32288.759      2104.3311      23.496         23.496         98.606808      0              0              0            
    820100   782.07993     -32417.078      129.29637     -32287.782      2515.2369      23.496         23.496         98.340903      0              0              0            
    820200   754.97685     -32414.251      124.81559     -32289.435      933.28344      23.496         23.496         98.900014      0              0              0            
    820300   762.10376     -32416.6        125.99383     -32290.607      1846.0932      23.496         23.496         98.696184      0              0              0            
    820400   764.12423     -32414.914      126.32787     -32288.587      1983.7097      23.496         23.496         98.434507      0              0              0            
    820500   746.51932     -32415.537      123.41735     -32292.119      1783.2759      23.496         23.496         98.428273      0              0              0            
    820600   766.12767     -32418.817      126.65908     -32292.158      2169.6344      23.496         23.496         98.489518      0              0              0            
    820700   747.87353     -32417.86       123.64124     -32294.219      1428.1001      23.496         23.496         98.710911      0              0              0            
    820800   744.92784     -32416.859      123.15425     -32293.705      2129.0264      23.496         23.496         97.807508      0              0              0            
    820900   757.33352     -32420.011      125.2052      -32294.805      1794.8969      23.496         23.496         98.558095      0              0              0            
    821000   751.91187     -32416.668      124.30887     -32292.36       1339.1681      23.496         23.496         98.804353      0              0              0            
    821100   762.29558     -32416.407      126.02555     -32290.381      1897.9854      23.496         23.496         98.042858      0              0              0            
    821200   776.96399     -32418.295      128.45058     -32289.845      1454.4402      23.496         23.496         98.278937      0              0              0            
    821300   757.76846     -32415.601      125.2771      -32290.324      1646.109       23.496         23.496         98.505458      0              0              0            
    821400   777.00909     -32416.84       128.45804     -32288.382      1104.8703      23.496         23.496         98.887113      0              0              0            
    821500   758.24113     -32412.879      125.35525     -32287.524      1327.2385      23.496         23.496         98.899796      0              0              0            
    821600   775.31137     -32414.709      128.17736     -32286.531      2441.3035      23.496         23.496         98.186265      0              0              0            
    821700   779.30304     -32414.698      128.83728     -32285.861      1933.0931      23.496         23.496         98.286326      0              0              0            
    821800   727.68513     -32406.938      120.30362     -32286.635      1848.6798      23.496         23.496         98.872416      0              0              0            
    821900   791.41753     -32416.557      130.84009     -32285.716      2488.5077      23.496         23.496         98.317107      0              0              0            
    822000   770.26762     -32415.188      127.34351     -32287.845      1059.9071      23.496         23.496         98.876447      0              0              0            
    822100   751.95799     -32412.865      124.3165      -32288.548     -274.15318      23.496         23.496         99.494419      0              0              0            
    822200   766.02769     -32416.825      126.64255     -32290.182      2972.8813      23.496         23.496         98.078209      0              0              0            
    822300   775.44194     -32419.563      128.19895     -32291.364      1521.9085      23.496         23.496         98.768356      0              0              0            
    822400   754.33001     -32415.114      124.70865     -32290.406      815.66302      23.496         23.496         99.279714      0              0              0            
    822500   763.7226      -32416.068      126.26147     -32289.807      2593.7903      23.496         23.496         98.118518      0              0              0            
    822600   792.71397     -32420.29       131.05443     -32289.235      1968.0129      23.496         23.496         98.662055      0              0              0            
    822700   748.10952     -32414.724      123.68025     -32291.044      2469.8169      23.496         23.496         98.787271      0              0              0            
    822800   768.19299     -32420.691      127.00053     -32293.69       2335.0045      23.496         23.496         98.07081       0              0              0            
    822900   759.19629     -32419.274      125.51316     -32293.761      3011.6869      23.496         23.496         98.128788      0              0              0            
    823000   745.96729     -32416.043      123.32609     -32292.717      1912.2577      23.496         23.496         98.539159      0              0              0            
    823100   795.87506     -32418.888      131.57703     -32287.311      2166.1085      23.496         23.496         98.32551       0              0              0            
    823200   778.39567     -32415.472      128.68727     -32286.785      1785.3462      23.496         23.496         98.479328      0              0              0            
    823300   771.86636     -32417.208      127.60782     -32289.6        1757.6723      23.496         23.496         98.708009      0              0              0            
    823400   767.34621     -32417.673      126.86053     -32290.813      1405.2857      23.496         23.496         98.37736       0              0              0            
    823500   756.70804     -32414.785      125.10179     -32289.683      2566.8827      23.496         23.496         98.079055      0              0              0            
    823600   760.69374     -32417.147      125.76072     -32291.386      1848.1128      23.496         23.496         98.450353      0              0              0            
    823700   737.85946     -32416.687      121.98567     -32294.701      2437.1521      23.496         23.496         98.079223      0              0              0            
    823800   751.05926     -32417.595      124.16791     -32293.428      2030.2513      23.496         23.496         97.852106      0              0              0            
    823900   757.89446     -32420.426      125.29794     -32295.128      2533.0952      23.496         23.496         97.813285      0              0              0            
    824000   735.2812      -32418.152      121.55943     -32296.592      2069.8103      23.496         23.496         97.815803      0              0              0            
    824100   736.44429     -32415.698      121.75171     -32293.947      2410.6633      23.496         23.496         97.579404      0              0              0            
    824200   736.82316     -32416.747      121.81435     -32294.933      1363.6449      23.496         23.496         98.414445      0              0              0            
    824300   738.97558     -32415.687      122.1702      -32293.517      3014.2518      23.496         23.496         97.701918      0              0              0            
    824400   770.19824     -32419.257      127.33204     -32291.925      2777.0536      23.496         23.496         97.613903      0              0              0            
    824500   763.37718     -32418.923      126.20436     -32292.718      1356.4721      23.496         23.496         98.580074      0              0              0            
    824600   764.77621     -32419.565      126.43565     -32293.129      2518.9434      23.496         23.496         97.866101      0              0              0            
    824700   769.81095     -32417.982      127.26801     -32290.714      2107.0954      23.496         23.496         97.703005      0              0              0            
    824800   766.28587     -32417.384      126.68523     -32290.699      1467.8376      23.496         23.496         98.176154      0              0              0            
    824900   760.58995     -32415.521      125.74356     -32289.777      1918.1231      23.496         23.496         98.814933      0              0              0            
    825000   755.6194      -32418.569      124.92181     -32293.647      1535.9959      23.496         23.496         98.532424      0              0              0            
    825100   737.5624      -32417.414      121.93656     -32295.478      2570.2237      23.496         23.496         98.000064      0              0              0            
    825200   741.02441     -32419.217      122.50892     -32296.708      2015.5224      23.496         23.496         98.512911      0              0              0            
    825300   761.09198     -32419.685      125.82656     -32293.859      2612.7108      23.496         23.496         98.142243      0              0              0            
    825400   750.84907     -32417.69       124.13317     -32293.556      2242.4149      23.496         23.496         98.233899      0              0              0            
    825500   762.44733     -32420.777      126.05063     -32294.727      1909.0639      23.496         23.496         98.333076      0              0              0            
    825600   742.87265     -32418.037      122.81447     -32295.223      1620.3931      23.496         23.496         98.420312      0              0              0            
    825700   758.66729     -32420.188      125.4257      -32294.762      1402.0811      23.496         23.496         98.553358      0              0              0            
    825800   766.28422     -32419.86       126.68496     -32293.175      1216.4643      23.496         23.496         98.723594      0              0              0            
    825900   747.28245     -32416.988      123.54352     -32293.444      1010.3442      23.496         23.496         98.812355      0              0              0            
    826000   753.58081     -32417.513      124.58479     -32292.928      2322.5429      23.496         23.496         98.070284      0              0              0            
    826100   756.38353     -32421.968      125.04814     -32296.92       2296.7517      23.496         23.496         98.242712      0              0              0            
    826200   747.52006     -32418.98       123.5828      -32295.397      2015.8734      23.496         23.496         98.485421      0              0              0            
    826300   764.48788     -32420.03       126.38798     -32293.642      2202.0652      23.496         23.496         98.56625       0              0              0            
    826400   755.93221     -32421.037      124.97353     -32296.063      2722.8829      23.496         23.496         97.762198      0              0              0            
    826500   754.95168     -32420.891      124.81142     -32296.08       2649.8075      23.496         23.496         97.586634      0              0              0            
    826600   726.66258     -32414.733      120.13457     -32294.598      1471.414       23.496         23.496         98.648391      0              0              0            
    826700   742.02027     -32417.977      122.67356     -32295.304      1840.0675      23.496         23.496         98.518767      0              0              0            
    826800   743.17571     -32418.581      122.86458     -32295.716      841.64509      23.496         23.496         98.559899      0              0              0            
    826900   783.83118     -32423.983      129.58589     -32294.397      3004.2573      23.496         23.496         97.82437       0              0              0            
    827000   763.8771      -32420.042      126.28701     -32293.755      1716.3691      23.496         23.496         98.097865      0              0              0            
    827100   734.42136     -32415.913      121.41728     -32294.496      1972.1456      23.496         23.496         98.172169      0              0              0            
    827200   759.05433     -32417.454      125.48969     -32291.964      2523.062       23.496         23.496         97.812859      0              0              0            
    827300   727.97535     -32413.441      120.3516      -32293.09       2175.604       23.496         23.496         98.244834      0              0              0            
    827400   753.46107     -32418.634      124.56499     -32294.069      1546.041       23.496         23.496         98.565587      0              0              0            
    827500   772.30717     -32421.55       127.6807      -32293.869      2613.38        23.496         23.496         97.877322      0              0              0            
    827600   758.64131     -32416.457      125.42141     -32291.036      1552.9679      23.496         23.496         98.497636      0              0              0            
    827700   743.93038     -32411.998      122.98934     -32289.009      1476.7466      23.496         23.496         98.791939      0              0              0            
    827800   767.15857     -32415.013      126.82951     -32288.183      2818.7624      23.496         23.496         98.099151      0              0              0            
    827900   758.40056     -32415.177      125.38161     -32289.796      2072.9796      23.496         23.496         98.359626      0              0              0            
    828000   747.94848     -32410.803      123.65363     -32287.149      1508.1121      23.496         23.496         98.819324      0              0              0            
    828100   768.76495     -32415.722      127.09509     -32288.627      2307.3893      23.496         23.496         98.424523      0              0              0            
    828200   771.28632     -32416.825      127.51193     -32289.313      2311.6122      23.496         23.496         98.759387      0              0              0            
    828300   753.37323     -32414.095      124.55047     -32289.545      1791.7095      23.496         23.496         99.039464      0              0              0            
    828400   745.85073     -32415.009      123.30682     -32291.702      2133.4937      23.496         23.496         98.470007      0              0              0            
    828500   760.07477     -32416.537      125.65839     -32290.879      1617.4754      23.496         23.496         98.989157      0              0              0            
    828600   737.33096     -32410.453      121.8983      -32288.554      2026.7691      23.496         23.496         98.986606      0              0              0            
    828700   754.86876     -32413.95       124.79772     -32289.152      1842.4401      23.496         23.496         98.759739      0              0              0            
    828800   775.26903     -32418.313      128.17036     -32290.143      2063.676       23.496         23.496         98.58497       0              0              0            
    828900   757.22578     -32417.576      125.18739     -32292.388      1696.842       23.496         23.496         98.93918       0              0              0            
    829000   726.45251     -32415.791      120.09984     -32295.691      595.67087      23.496         23.496         99.534182      0              0              0            
    829100   728.5451      -32415.015      120.44579     -32294.569      2357.6848      23.496         23.496         98.564999      0              0              0            
    829200   737.84233     -32413.329      121.98284     -32291.346      2378.2816      23.496         23.496         98.288907      0              0              0            
    829300   758.42432     -32416.136      125.38553     -32290.751      1776.1851      23.496         23.496         98.752474      0              0              0            
    829400   765.22618     -32417.783      126.51004     -32291.273      2652.471       23.496         23.496         98.085341      0              0              0            
    829500   771.49453     -32418.259      127.54635     -32290.713      841.62152      23.496         23.496         98.774562      0              0              0            
    829600   725.38795     -32411.617      119.92384     -32291.693      1467.3614      23.496         23.496         98.700276      0              0              0            
    829700   750.00804     -32412.873      123.99412     -32288.879      2530.4955      23.496         23.496         97.837003      0              0              0            
    829800   756.30322     -32416.777      125.03487     -32291.743      2746.4005      23.496         23.496         97.635975      0              0              0            
    829900   770.70313     -32421.059      127.41551     -32293.644      1863.7912      23.496         23.496         98.425527      0              0              0            
    830000   756.37853     -32419.308      125.04732     -32294.26       2425.2721      23.496         23.496         97.968478      0              0              0            
    830100   751.36074     -32420.745      124.21776     -32296.527      3096.4839      23.496         23.496         97.283265      0              0              0            
    830200   750.46573     -32419.975      124.06979     -32295.905      1724.2318      23.496         23.496         98.254343      0              0              0            
    830300   712.05495     -32411.182      117.71958     -32293.462      2330.2531      23.496         23.496         98.556859      0              0              0            
    830400   774.32844     -32419.892      128.01486     -32291.877      2053.5615      23.496         23.496 