ITEM: TIMESTEP
0
ITEM: NUMBER OF ATOMS
5184
ITEM: BOX BOUNDS xy xz yz pp pp pp
-2.5980899999999988e+01 5.1961799999999997e+01 -2.5980899999999988e+01
0.0000000000000000e+00 4.5000238826366243e+01 0.0000000000000000e+00
0.0000000000000000e+00 4.7413199999999996e+01 0.0000000000000000e+00
ITEM: ATOMS id type x y z fx fy fz
1 1 -0.209218 5.28788 1.45601 6.93114e-310 6.93114e-310 0
2 1 4.1218 2.78736 5.40711 0 0 0
3 1 -0.209218 5.28788 9.35821 0 0 0
4 1 4.1218 2.78736 13.3093 0 0 0
5 1 -0.209218 5.28788 17.2604 0 0 0
6 1 4.1218 2.78736 21.2115 0 0 0
7 1 -0.209218 5.28788 25.1626 0 0 0
8 1 4.1218 2.78736 29.1137 0 0 0
9 1 -0.209218 5.28788 33.0648 0 0 0
10 1 4.1218 2.78736 37.0159 0 0 0
11 1 -0.209218 5.28788 40.967 0 0 0
12 1 4.1218 2.78736 44.9181 0 0 0
13 1 -4.53937 12.7879 1.45601 0 0 0
14 1 -0.208352 10.2874 5.40711 0 0 0
15 1 -4.53937 12.7879 9.35821 0 0 0
16 1 -0.208352 10.2874 13.3093 0 0 0
17 1 -4.53937 12.7879 17.2604 0 0 0
18 1 -0.208352 10.2874 21.2115 0 0 0
19 1 -4.53937 12.7879 25.1626 0 0 0
20 1 -0.208352 10.2874 29.1137 0 0 0
21 1 -4.53937 12.7879 33.0648 0 0 0
22 1 -0.208352 10.2874 37.0159 0 0 0
23 1 -4.53937 12.7879 40.967 0 0 0
24 1 -0.208352 10.2874 44.9181 0 0 0
25 1 -8.86952 20.288 1.45601 0 0 0
26 1 -4.5385 17.7874 5.40711 0 0 0
27 1 -8.86952 20.288 9.35821 0 0 0
28 1 -4.5385 17.7874 13.3093 0 0 0
29 1 -8.86952 20.288 17.2604 0 0 0
30 1 -4.5385 17.7874 21.2115 0 0 0
31 1 -8.86952 20.288 25.1626 0 0 0
32 1 -4.5385 17.7874 29.1137 0 0 0
33 1 -8.86952 20.288 33.0648 0 0 0
34 1 -4.5385 17.7874 37.0159 0 0 0
35 1 -8.86952 20.288 40.967 0 0 0
36 1 -4.5385 17.7874 44.9181 0 0 0
37 1 -13.1997 27.788 1.45601 0 0 0
38 1 -8.86865 25.2875 5.40711 0 0 0
39 1 -13.1997 27.788 9.35821 0 0 0
40 1 -8.86865 25.2875 13.3093 0 0 0
41 1 -13.1997 27.788 17.2604 0 0 0
42 1 -8.86865 25.2875 21.2115 0 0 0
43 1 -13.1997 27.788 25.1626 0 0 0
44 1 -8.86865 25.2875 29.1137 0 0 0
45 1 -13.1997 27.788 33.0648 0 0 0
46 1 -8.86865 25.2875 37.0159 0 0 0
47 1 -13.1997 27.788 40.967 0 0 0
48 1 -8.86865 25.2875 44.9181 0 0 0
49 1 -17.5298 35.288 1.45601 0 0 0
50 1 -13.1988 32.7875 5.40711 0 0 0
51 1 -17.5298 35.288 9.35821 0 0 0
52 1 -13.1988 32.7875 13.3093 0 0 0
53 1 -17.5298 35.288 17.2604 0 0 0
54 1 -13.1988 32.7875 21.2115 0 0 0
55 1 -17.5298 35.288 25.1626 0 0 0
56 1 -13.1988 32.7875 29.1137 0 0 0
57 1 -17.5298 35.288 33.0648 0 0 0
58 1 -13.1988 32.7875 37.0159 0 0 0
59 1 -17.5298 35.288 40.967 0 0 0
60 1 -13.1988 32.7875 44.9181 0 0 0
61 1 -21.86 42.7881 1.45601 0 0 0
62 1 -17.529 40.2876 5.40711 0 0 0
63 1 -21.86 42.7881 9.35821 0 0 0
64 1 -17.529 40.2876 13.3093 0 0 0
65 1 -21.86 42.7881 17.2604 0 0 0
66 1 -17.529 40.2876 21.2115 0 0 0
67 1 -21.86 42.7881 25.1626 0 0 0
68 1 -17.529 40.2876 29.1137 0 0 0
69 1 -21.86 42.7881 33.0648 0 0 0
70 1 -17.529 40.2876 37.0159 0 0 0
71 1 -21.86 42.7881 40.967 0 0 0
72 1 -17.529 40.2876 44.9181 0 0 0
73 1 8.45108 5.28788 1.45601 0 0 0
74 1 12.7821 2.78736 5.40711 0 0 0
75 1 8.45108 5.28788 9.35821 0 0 0
76 1 12.7821 2.78736 13.3093 0 0 0
77 1 8.45108 5.28788 17.2604 0 0 0
78 1 12.7821 2.78736 21.2115 0 0 0
79 1 8.45108 5.28788 25.1626 0 0 0
80 1 12.7821 2.78736 29.1137 0 0 0
81 1 8.45108 5.28788 33.0648 0 0 0
82 1 12.7821 2.78736 37.0159 0 0 0
83 1 8.45108 5.28788 40.967 0 0 0
84 1 12.7821 2.78736 44.9181 0 0 0
85 1 4.12093 12.7879 1.45601 0 0 0
86 1 8.45195 10.2874 5.40711 0 0 0
87 1 4.12093 12.7879 9.35821 0 0 0
88 1 8.45195 10.2874 13.3093 0 0 0
89 1 4.12093 12.7879 17.2604 0 0 0
90 1 8.45195 10.2874 21.2115 0 0 0
91 1 4.12093 12.7879 25.1626 0 0 0
92 1 8.45195 10.2874 29.1137 0 0 0
93 1 4.12093 12.7879 33.0648 0 0 0
94 1 8.45195 10.2874 37.0159 0 0 0
95 1 4.12093 12.7879 40.967 0 0 0
96 1 8.45195 10.2874 44.9181 0 0 0
97 1 -0.209218 20.288 1.45601 0 0 0
98 1 4.1218 17.7874 5.40711 0 0 0
99 1 -0.209218 20.288 9.35821 0 0 0
100 1 4.1218 17.7874 13.3093 0 0 0
101 1 -0.209218 20.288 17.2604 0 0 0
102 1 4.1218 17.7874 21.2115 0 0 0
103 1 -0.209218 20.288 25.1626 0 0 0
104 1 4.1218 17.7874 29.1137 0 0 0
105 1 -0.209218 20.288 33.0648 0 0 0
106 1 4.1218 17.7874 37.0159 0 0 0
107 1 -0.209218 20.288 40.967 0 0 0
108 1 4.1218 17.7874 44.9181 0 0 0
109 1 -4.53937 27.788 1.45601 0 0 0
110 1 -0.208352 25.2875 5.40711 0 0 0
111 1 -4.53937 27.788 9.35821 0 0 0
112 1 -0.208352 25.2875 13.3093 0 0 0
113 1 -4.53937 27.788 17.2604 0 0 0
114 1 -0.208352 25.2875 21.2115 0 0 0
115 1 -4.53937 27.788 25.1626 0 0 0
116 1 -0.208352 25.2875 29.1137 0 0 0
117 1 -4.53937 27.788 33.0648 0 0 0
118 1 -0.208352 25.2875 37.0159 0 0 0
119 1 -4.53937 27.788 40.967 0 0 0
120 1 -0.208352 25.2875 44.9181 0 0 0
121 1 -8.86952 35.288 1.45601 0 0 0
122 1 -4.5385 32.7875 5.40711 0 0 0
123 1 -8.86952 35.288 9.35821 0 0 0
124 1 -4.5385 32.7875 13.3093 0 0 0
125 1 -8.86952 35.288 17.2604 0 0 0
126 1 -4.5385 32.7875 21.2115 0 0 0
127 1 -8.86952 35.288 25.1626 0 0 0
128 1 -4.5385 32.7875 29.1137 0 0 0
129 1 -8.86952 35.288 33.0648 0 0 0
130 1 -4.5385 32.7875 37.0159 0 0 0
131 1 -8.86952 35.288 40.967 0 0 0
132 1 -4.5385 32.7875 44.9181 0 0 0
133 1 -13.1997 42.7881 1.45601 0 0 0
134 1 -8.86865 40.2876 5.40711 0 0 0
135 1 -13.1997 42.7881 9.35821 0 0 0
136 1 -8.86865 40.2876 13.3093 0 0 0
137 1 -13.1997 42.7881 17.2604 0 0 0
138 1 -8.86865 40.2876 21.2115 0 0 0
139 1 -13.1997 42.7881 25.1626 0 0 0
140 1 -8.86865 40.2876 29.1137 0 0 0
141 1 -13.1997 42.7881 33.0648 0 0 0
142 1 -8.86865 40.2876 37.0159 0 0 0
143 1 -13.1997 42.7881 40.967 0 0 0
144 1 -8.86865 40.2876 44.9181 0 0 0
145 1 17.1114 5.28788 1.45601 0 0 0
146 1 21.4424 2.78736 5.40711 0 0 0
147 1 17.1114 5.28788 9.35821 0 0 0
148 1 21.4424 2.78736 13.3093 0 0 0
149 1 17.1114 5.28788 17.2604 0 0 0
150 1 21.4424 2.78736 21.2115 0 0 0
151 1 17.1114 5.28788 25.1626 0 0 0
152 1 21.4424 2.78736 29.1137 0 0 0
153 1 17.1114 5.28788 33.0648 0 0 0
154 1 21.4424 2.78736 37.0159 0 0 0
155 1 17.1114 5.28788 40.967 0 0 0
156 1 21.4424 2.78736 44.9181 0 0 0
157 1 12.7812 12.7879 1.45601 0 0 0
158 1 17.1122 10.2874 5.40711 0 0 0
159 1 12.7812 12.7879 9.35821 0 0 0
160 1 17.1122 10.2874 13.3093 0 0 0
161 1 12.7812 12.7879 17.2604 0 0 0
162 1 17.1122 10.2874 21.2115 0 0 0
163 1 12.7812 12.7879 25.1626 0 0 0
164 1 17.1122 10.2874 29.1137 0 0 0
165 1 12.7812 12.7879 33.0648 0 0 0
166 1 17.1122 10.2874 37.0159 0 0 0
167 1 12.7812 12.7879 40.967 0 0 0
168 1 17.1122 10.2874 44.9181 0 0 0
169 1 8.45108 20.288 1.45601 0 0 0
170 1 12.7821 17.7874 5.40711 0 0 0
171 1 8.45108 20.288 9.35821 0 0 0
172 1 12.7821 17.7874 13.3093 0 0 0
173 1 8.45108 20.288 17.2604 0 0 0
174 1 12.7821 17.7874 21.2115 0 0 0
175 1 8.45108 20.288 25.1626 0 0 0
176 1 12.7821 17.7874 29.1137 0 0 0
177 1 8.45108 20.288 33.0648 0 0 0
178 1 12.7821 17.7874 37.0159 0 0 0
179 1 8.45108 20.288 40.967 0 0 0
180 1 12.7821 17.7874 44.9181 0 0 0
181 1 4.12093 27.788 1.45601 0 0 0
182 1 8.45195 25.2875 5.40711 0 0 0
183 1 4.12093 27.788 9.35821 0 0 0
184 1 8.45195 25.2875 13.3093 0 0 0
185 1 4.12093 27.788 17.2604 0 0 0
186 1 8.45195 25.2875 21.2115 0 0 0
187 1 4.12093 27.788 25.1626 0 0 0
188 1 8.45195 25.2875 29.1137 0 0 0
189 1 4.12093 27.788 33.0648 0 0 0
190 1 8.45195 25.2875 37.0159 0 0 0
191 1 4.12093 27.788 40.967 0 0 0
192 1 8.45195 25.2875 44.9181 0 0 0
193 1 -0.209218 35.288 1.45601 0 0 0
194 1 4.1218 32.7875 5.40711 0 0 0
195 1 -0.209218 35.288 9.35821 0 0 0
196 1 4.1218 32.7875 13.3093 0 0 0
197 1 -0.209218 35.288 17.2604 0 0 0
198 1 4.1218 32.7875 21.2115 0 0 0
199 1 -0.209218 35.288 25.1626 0 0 0
200 1 4.1218 32.7875 29.1137 0 0 0
201 1 -0.209218 35.288 33.0648 0 0 0
202 1 4.1218 32.7875 37.0159 0 0 0
203 1 -0.209218 35.288 40.967 0 0 0
204 1 4.1218 32.7875 44.9181 0 0 0
205 1 -4.53937 42.7881 1.45601 0 0 0
206 1 -0.208352 40.2876 5.40711 0 0 0
207 1 -4.53937 42.7881 9.35821 0 0 0
208 1 -0.208352 40.2876 13.3093 0 0 0
209 1 -4.53937 42.7881 17.2604 0 0 0
210 1 -0.208352 40.2876 21.2115 0 0 0
211 1 -4.53937 42.7881 25.1626 0 0 0
212 1 -0.208352 40.2876 29.1137 0 0 0
213 1 -4.53937 42.7881 33.0648 0 0 0
214 1 -0.208352 40.2876 37.0159 0 0 0
215 1 -4.53937 42.7881 40.967 0 0 0
216 1 -0.208352 40.2876 44.9181 0 0 0
217 1 25.7717 5.28788 1.45601 0 0 0
218 1 30.1027 2.78736 5.40711 0 0 0
219 1 25.7717 5.28788 9.35821 0 0 0
220 1 30.1027 2.78736 13.3093 0 0 0
221 1 25.7717 5.28788 17.2604 0 0 0
222 1 30.1027 2.78736 21.2115 0 0 0
223 1 25.7717 5.28788 25.1626 0 0 0
224 1 30.1027 2.78736 29.1137 0 0 0
225 1 25.7717 5.28788 33.0648 0 0 0
226 1 30.1027 2.78736 37.0159 0 0 0
227 1 25.7717 5.28788 40.967 0 0 0
228 1 30.1027 2.78736 44.9181 0 0 0
229 1 21.4415 12.7879 1.45601 0 0 0
230 1 25.7725 10.2874 5.40711 0 0 0
231 1 21.4415 12.7879 9.35821 0 0 0
232 1 25.7725 10.2874 13.3093 0 0 0
233 1 21.4415 12.7879 17.2604 0 0 0
234 1 25.7725 10.2874 21.2115 0 0 0
235 1 21.4415 12.7879 25.1626 0 0 0
236 1 25.7725 10.2874 29.1137 0 0 0
237 1 21.4415 12.7879 33.0648 0 0 0
238 1 25.7725 10.2874 37.0159 0 0 0
239 1 21.4415 12.7879 40.967 0 0 0
240 1 25.7725 10.2874 44.9181 0 0 0
241 1 17.1114 20.288 1.45601 0 0 0
242 1 21.4424 17.7874 5.40711 0 0 0
243 1 17.1114 20.288 9.35821 0 0 0
244 1 21.4424 17.7874 13.3093 0 0 0
245 1 17.1114 20.288 17.2604 0 0 0
246 1 21.4424 17.7874 21.2115 0 0 0
247 1 17.1114 20.288 25.1626 0 0 0
248 1 21.4424 17.7874 29.1137 0 0 0
249 1 17.1114 20.288 33.0648 0 0 0
250 1 21.4424 17.7874 37.0159 0 0 0
251 1 17.1114 20.288 40.967 0 0 0
252 1 21.4424 17.7874 44.9181 0 0 0
253 1 12.7812 27.788 1.45601 0 0 0
254 1 17.1122 25.2875 5.40711 0 0 0
255 1 12.7812 27.788 9.35821 0 0 0
256 1 17.1122 25.2875 13.3093 0 0 0
257 1 12.7812 27.788 17.2604 0 0 0
258 1 17.1122 25.2875 21.2115 0 0 0
259 1 12.7812 27.788 25.1626 0 0 0
260 1 17.1122 25.2875 29.1137 0 0 0
261 1 12.7812 27.788 33.0648 0 0 0
262 1 17.1122 25.2875 37.0159 0 0 0
263 1 12.7812 27.788 40.967 0 0 0
264 1 17.1122 25.2875 44.9181 0 0 0
265 1 8.45108 35.288 1.45601 0 0 0
266 1 12.7821 32.7875 5.40711 0 0 0
267 1 8.45108 35.288 9.35821 0 0 0
268 1 12.7821 32.7875 13.3093 0 0 0
269 1 8.45108 35.288 17.2604 0 0 0
270 1 12.7821 32.7875 21.2115 0 0 0
271 1 8.45108 35.288 25.1626 0 0 0
272 1 12.7821 32.7875 29.1137 0 0 0
273 1 8.45108 35.288 33.0648 0 0 0
274 1 12.7821 32.7875 37.0159 0 0 0
275 1 8.45108 35.288 40.967 0 0 0
276 1 12.7821 32.7875 44.9181 0 0 0
277 1 4.12093 42.7881 1.45601 0 0 0
278 1 8.45195 40.2876 5.40711 0 0 0
279 1 4.12093 42.7881 9.35821 0 0 0
280 1 8.45195 40.2876 13.3093 0 0 0
281 1 4.12093 42.7881 17.2604 0 0 0
282 1 8.45195 40.2876 21.2115 0 0 0
283 1 4.12093 42.7881 25.1626 0 0 0
284 1 8.45195 40.2876 29.1137 0 0 0
285 1 4.12093 42.7881 33.0648 0 0 0
286 1 8.45195 40.2876 37.0159 0 0 0
287 1 4.12093 42.7881 40.967 0 0 0
288 1 8.45195 40.2876 44.9181 0 0 0
289 1 34.432 5.28788 1.45601 0 0 0
290 1 38.763 2.78736 5.40711 0 0 0
291 1 34.432 5.28788 9.35821 0 0 0
292 1 38.763 2.78736 13.3093 0 0 0
293 1 34.432 5.28788 17.2604 0 0 0
294 1 38.763 2.78736 21.2115 0 0 0
295 1 34.432 5.28788 25.1626 0 0 0
296 1 38.763 2.78736 29.1137 0 0 0
297 1 34.432 5.28788 33.0648 0 0 0
298 1 38.763 2.78736 37.0159 0 0 0
299 1 34.432 5.28788 40.967 0 0 0
300 1 38.763 2.78736 44.9181 0 0 0
301 1 30.1018 12.7879 1.45601 0 0 0
302 1 34.4328 10.2874 5.40711 0 0 0
303 1 30.1018 12.7879 9.35821 0 0 0
304 1 34.4328 10.2874 13.3093 0 0 0
305 1 30.1018 12.7879 17.2604 0 0 0
306 1 34.4328 10.2874 21.2115 0 0 0
307 1 30.1018 12.7879 25.1626 0 0 0
308 1 34.4328 10.2874 29.1137 0 0 0
309 1 30.1018 12.7879 33.0648 0 0 0
310 1 34.4328 10.2874 37.0159 0 0 0
311 1 30.1018 12.7879 40.967 0 0 0
312 1 34.4328 10.2874 44.9181 0 0 0
313 1 25.7717 20.288 1.45601 0 0 0
314 1 30.1027 17.7874 5.40711 0 0 0
315 1 25.7717 20.288 9.35821 0 0 0
316 1 30.1027 17.7874 13.3093 0 0 0
317 1 25.7717 20.288 17.2604 0 0 0
318 1 30.1027 17.7874 21.2115 0 0 0
319 1 25.7717 20.288 25.1626 0 0 0
320 1 30.1027 17.7874 29.1137 0 0 0
321 1 25.7717 20.288 33.0648 0 0 0
322 1 30.1027 17.7874 37.0159 0 0 0
323 1 25.7717 20.288 40.967 0 0 0
324 1 30.1027 17.7874 44.9181 0 0 0
325 1 21.4415 27.788 1.45601 0 0 0
326 1 25.7725 25.2875 5.40711 0 0 0
327 1 21.4415 27.788 9.35821 0 0 0
328 1 25.7725 25.2875 13.3093 0 0 0
329 1 21.4415 27.788 17.2604 0 0 0
330 1 25.7725 25.2875 21.2115 0 0 0
331 1 21.4415 27.788 25.1626 0 0 0
332 1 25.7725 25.2875 29.1137 0 0 0
333 1 21.4415 27.788 33.0648 0 0 0
334 1 25.7725 25.2875 37.0159 0 0 0
335 1 21.4415 27.788 40.967 0 0 0
336 1 25.7725 25.2875 44.9181 0 0 0
337 1 17.1114 35.288 1.45601 0 0 0
338 1 21.4424 32.7875 5.40711 0 0 0
339 1 17.1114 35.288 9.35821 0 0 0
340 1 21.4424 32.7875 13.3093 0 0 0
341 1 17.1114 35.288 17.2604 0 0 0
342 1 21.4424 32.7875 21.2115 0 0 0
343 1 17.1114 35.288 25.1626 0 0 0
344 1 21.4424 32.7875 29.1137 0 0 0
345 1 17.1114 35.288 33.0648 0 0 0
346 1 21.4424 32.7875 37.0159 0 0 0
347 1 17.1114 35.288 40.967 0 0 0
348 1 21.4424 32.7875 44.9181 0 0 0
349 1 12.7812 42.7881 1.45601 0 0 0
350 1 17.1122 40.2876 5.40711 0 0 0
351 1 12.7812 42.7881 9.35821 0 0 0
352 1 17.1122 40.2876 13.3093 0 0 0
353 1 12.7812 42.7881 17.2604 0 0 0
354 1 17.1122 40.2876 21.2115 0 0 0
355 1 12.7812 42.7881 25.1626 0 0 0
356 1 17.1122 40.2876 29.1137 0 0 0
357 1 12.7812 42.7881 33.0648 0 0 0
358 1 17.1122 40.2876 37.0159 0 0 0
359 1 12.7812 42.7881 40.967 0 0 0
360 1 17.1122 40.2876 44.9181 0 0 0
361 1 43.0923 5.28788 1.45601 0 0 0
362 1 47.4233 2.78736 5.40711 0 0 0
363 1 43.0923 5.28788 9.35821 0 0 0
364 1 47.4233 2.78736 13.3093 0 0 0
365 1 43.0923 5.28788 17.2604 0 0 0
366 1 47.4233 2.78736 21.2115 0 0 0
367 1 43.0923 5.28788 25.1626 0 0 0
368 1 47.4233 2.78736 29.1137 0 0 0
369 1 43.0923 5.28788 33.0648 0 0 0
370 1 47.4233 2.78736 37.0159 0 0 0
371 1 43.0923 5.28788 40.967 0 0 0
372 1 47.4233 2.78736 44.9181 0 0 0
373 1 38.7621 12.7879 1.45601 0 0 0
374 1 43.0931 10.2874 5.40711 0 0 0
375 1 38.7621 12.7879 9.35821 0 0 0
376 1 43.0931 10.2874 13.3093 0 0 0
377 1 38.7621 12.7879 17.2604 0 0 0
378 1 43.0931 10.2874 21.2115 0 0 0
379 1 38.7621 12.7879 25.1626 0 0 0
380 1 43.0931 10.2874 29.1137 0 0 0
381 1 38.7621 12.7879 33.0648 0 0 0
382 1 43.0931 10.2874 37.0159 0 0 0
383 1 38.7621 12.7879 40.967 0 0 0
384 1 43.0931 10.2874 44.9181 0 0 0
385 1 34.432 20.288 1.45601 0 0 0
386 1 38.763 17.7874 5.40711 0 0 0
387 1 34.432 20.288 9.35821 0 0 0
388 1 38.763 17.7874 13.3093 0 0 0
389 1 34.432 20.288 17.2604 0 0 0
390 1 38.763 17.7874 21.2115 0 0 0
391 1 34.432 20.288 25.1626 0 0 0
392 1 38.763 17.7874 29.1137 0 0 0
393 1 34.432 20.288 33.0648 0 0 0
394 1 38.763 17.7874 37.0159 0 0 0
395 1 34.432 20.288 40.967 0 0 0
396 1 38.763 17.7874 44.9181 0 0 0
397 1 30.1018 27.788 1.45601 0 0 0
398 1 34.4328 25.2875 5.40711 0 0 0
399 1 30.1018 27.788 9.35821 0 0 0
400 1 34.4328 25.2875 13.3093 0 0 0
401 1 30.1018 27.788 17.2604 0 0 0
402 1 34.4328 25.2875 21.2115 0 0 0
403 1 30.1018 27.788 25.1626 0 0 0
404 1 34.4328 25.2875 29.1137 0 0 0
405 1 30.1018 27.788 33.0648 0 0 0
406 1 34.4328 25.2875 37.0159 0 0 0
407 1 30.1018 27.788 40.967 0 0 0
408 1 34.4328 25.2875 44.9181 0 0 0
409 1 25.7717 35.288 1.45601 0 0 0
410 1 30.1027 32.7875 5.40711 0 0 0
411 1 25.7717 35.288 9.35821 0 0 0
412 1 30.1027 32.7875 13.3093 0 0 0
413 1 25.7717 35.288 17.2604 0 0 0
414 1 30.1027 32.7875 21.2115 0 0 0
415 1 25.7717 35.288 25.1626 0 0 0
416 1 30.1027 32.7875 29.1137 0 0 0
417 1 25.7717 35.288 33.0648 0 0 0
418 1 30.1027 32.7875 37.0159 0 0 0
419 1 25.7717 35.288 40.967 0 0 0
420 1 30.1027 32.7875 44.9181 0 0 0
421 1 21.4415 42.7881 1.45601 0 0 0
422 1 25.7725 40.2876 5.40711 0 0 0
423 1 21.4415 42.7881 9.35821 0 0 0
424 1 25.7725 40.2876 13.3093 0 0 0
425 1 21.4415 42.7881 17.2604 0 0 0
426 1 25.7725 40.2876 21.2115 0 0 0
427 1 21.4415 42.7881 25.1626 0 0 0
428 1 25.7725 40.2876 29.1137 0 0 0
429 1 21.4415 42.7881 33.0648 0 0 0
430 1 25.7725 40.2876 37.0159 0 0 0
431 1 21.4415 42.7881 40.967 0 0 0
432 1 25.7725 40.2876 44.9181 0 0 0
433 2 0.0937818 4.68388 46.9222 0 0 0
434 2 1.08478 3.69688 1.62901 0 0 0
435 2 0.593782 4.47688 3.12201 0 0 0
436 2 -0.972218 6.05488 47.1592 0 0 0
437 2 -0.752218 6.03588 2.05801 0 0 0
438 2 4.4248 2.18336 3.46011 0 0 0
439 2 5.4158 1.19636 5.58011 0 0 0
440 2 4.9248 1.97636 7.07311 0 0 0
441 2 3.3588 3.55436 3.69711 0 0 0
442 2 3.5788 3.53536 6.00911 0 0 0
443 2 0.0937818 4.68388 7.41121 0 0 0
444 2 1.08478 3.69688 9.53121 0 0 0
445 2 0.593782 4.47688 11.0242 0 0 0
446 2 -0.972218 6.05488 7.64821 0 0 0
447 2 -0.752218 6.03588 9.96021 0 0 0
448 2 4.4248 2.18336 11.3623 0 0 0
449 2 5.4158 1.19636 13.4823 0 0 0
450 2 4.9248 1.97636 14.9753 0 0 0
451 2 3.3588 3.55436 11.5993 0 0 0
452 2 3.5788 3.53536 13.9113 0 0 0
453 2 0.0937818 4.68388 15.3134 0 0 0
454 2 1.08478 3.69688 17.4334 0 0 0
455 2 0.593782 4.47688 18.9264 0 0 0
456 2 -0.972218 6.05488 15.5504 0 0 0
457 2 -0.752218 6.03588 17.8624 0 0 0
458 2 4.4248 2.18336 19.2645 0 0 0
459 2 5.4158 1.19636 21.3845 0 0 0
460 2 4.9248 1.97636 22.8775 0 0 0
461 2 3.3588 3.55436 19.5015 0 0 0
462 2 3.5788 3.53536 21.8135 0 0 0
463 2 0.0937818 4.68388 23.2156 0 0 0
464 2 1.08478 3.69688 25.3356 0 0 0
465 2 0.593782 4.47688 26.8286 0 0 0
466 2 -0.972218 6.05488 23.4526 0 0 0
467 2 -0.752218 6.03588 25.7646 0 0 0
468 2 4.4248 2.18336 27.1667 0 0 0
469 2 5.4158 1.19636 29.2867 0 0 0
470 2 4.9248 1.97636 30.7797 0 0 0
471 2 3.3588 3.55436 27.4037 0 0 0
472 2 3.5788 3.53536 29.7157 0 0 0
473 2 0.0937818 4.68388 31.1178 0 0 0
474 2 1.08478 3.69688 33.2378 0 0 0
475 2 0.593782 4.47688 34.7308 0 0 0
476 2 -0.972218 6.05488 31.3548 0 0 0
477 2 -0.752218 6.03588 33.6668 0 0 0
478 2 4.4248 2.18336 35.0689 0 0 0
479 2 5.4158 1.19636 37.1889 0 0 0
480 2 4.9248 1.97636 38.6819 0 0 0
481 2 3.3588 3.55436 35.3059 0 0 0
482 2 3.5788 3.53536 37.6179 0 0 0
483 2 0.0937818 4.68388 39.02 0 0 0
484 2 1.08478 3.69688 41.14 0 0 0
485 2 0.593782 4.47688 42.633 0 0 0
486 2 -0.972218 6.05488 39.257 0 0 0
487 2 -0.752218 6.03588 41.569 0 0 0
488 2 4.4248 2.18336 42.9711 0 0 0
489 2 5.4158 1.19636 45.0911 0 0 0
490 2 4.9248 1.97636 46.5841 0 0 0
491 2 3.3588 3.55436 43.2081 0 0 0
492 2 3.5788 3.53536 45.5201 0 0 0
493 2 -4.23637 12.1839 46.9222 0 0 0
494 2 -3.24537 11.1969 1.62901 0 0 0
495 2 -3.73637 11.9769 3.12201 0 0 0
496 2 -5.30237 13.5549 47.1592 0 0 0
497 2 -5.08237 13.5359 2.05801 0 0 0
498 2 0.0946479 9.6834 3.46011 0 0 0
499 2 1.08565 8.6964 5.58011 0 0 0
500 2 0.594648 9.4764 7.07311 0 0 0
501 2 -0.971352 11.0544 3.69711 0 0 0
502 2 -0.751352 11.0354 6.00911 0 0 0
503 2 -4.23637 12.1839 7.41121 0 0 0
504 2 -3.24537 11.1969 9.53121 0 0 0
505 2 -3.73637 11.9769 11.0242 0 0 0
506 2 -5.30237 13.5549 7.64821 0 0 0
507 2 -5.08237 13.5359 9.96021 0 0 0
508 2 0.0946479 9.6834 11.3623 0 0 0
509 2 1.08565 8.6964 13.4823 0 0 0
510 2 0.594648 9.4764 14.9753 0 0 0
511 2 -0.971352 11.0544 11.5993 0 0 0
512 2 -0.751352 11.0354 13.9113 0 0 0
513 2 -4.23637 12.1839 15.3134 0 0 0
514 2 -3.24537 11.1969 17.4334 0 0 0
515 2 -3.73637 11.9769 18.9264 0 0 0
516 2 -5.30237 13.5549 15.5504 0 0 0
517 2 -5.08237 13.5359 17.8624 0 0 0
518 2 0.0946479 9.6834 19.2645 0 0 0
519 2 1.08565 8.6964 21.3845 0 0 0
520 2 0.594648 9.4764 22.8775 0 0 0
521 2 -0.971352 11.0544 19.5015 0 0 0
522 2 -0.751352 11.0354 21.8135 0 0 0
523 2 -4.23637 12.1839 23.2156 0 0 0
524 2 -3.24537 11.1969 25.3356 0 0 0
525 2 -3.73637 11.9769 26.8286 0 0 0
526 2 -5.30237 13.5549 23.4526 0 0 0
527 2 -5.08237 13.5359 25.7646 0 0 0
528 2 0.0946479 9.6834 27.1667 0 0 0
529 2 1.08565 8.6964 29.2867 0 0 0
530 2 0.594648 9.4764 30.7797 0 0 0
531 2 -0.971352 11.0544 27.4037 0 0 0
532 2 -0.751352 11.0354 29.7157 0 0 0
533 2 -4.23637 12.1839 31.1178 0 0 0
534 2 -3.24537 11.1969 33.2378 0 0 0
535 2 -3.73637 11.9769 34.7308 0 0 0
536 2 -5.30237 13.5549 31.3548 0 0 0
537 2 -5.08237 13.5359 33.6668 0 0 0
538 2 0.0946479 9.6834 35.0689 0 0 0
539 2 1.08565 8.6964 37.1889 0 0 0
540 2 0.594648 9.4764 38.6819 0 0 0
541 2 -0.971352 11.0544 35.3059 0 0 0
542 2 -0.751352 11.0354 37.6179 0 0 0
543 2 -4.23637 12.1839 39.02 0 0 0
544 2 -3.24537 11.1969 41.14 0 0 0
545 2 -3.73637 11.9769 42.633 0 0 0
546 2 -5.30237 13.5549 39.257 0 0 0
547 2 -5.08237 13.5359 41.569 0 0 0
548 2 0.0946479 9.6834 42.9711 0 0 0
549 2 1.08565 8.6964 45.0911 0 0 0
550 2 0.594648 9.4764 46.5841 0 0 0
551 2 -0.971352 11.0544 43.2081 0 0 0
552 2 -0.751352 11.0354 45.5201 0 0 0
553 2 -8.56652 19.684 46.9222 0 0 0
554 2 -7.57552 18.697 1.62901 0 0 0
555 2 -8.06652 19.477 3.12201 0 0 0
556 2 -9.63252 21.055 47.1592 0 0 0
557 2 -9.41252 21.036 2.05801 0 0 0
558 2 -4.2355 17.1834 3.46011 0 0 0
559 2 -3.2445 16.1964 5.58011 0 0 0
560 2 -3.7355 16.9764 7.07311 0 0 0
561 2 -5.3015 18.5544 3.69711 0 0 0
562 2 -5.0815 18.5354 6.00911 0 0 0
563 2 -8.56652 19.684 7.41121 0 0 0
564 2 -7.57552 18.697 9.53121 0 0 0
565 2 -8.06652 19.477 11.0242 0 0 0
566 2 -9.63252 21.055 7.64821 0 0 0
567 2 -9.41252 21.036 9.96021 0 0 0
568 2 -4.2355 17.1834 11.3623 0 0 0
569 2 -3.2445 16.1964 13.4823 0 0 0
570 2 -3.7355 16.9764 14.9753 0 0 0
571 2 -5.3015 18.5544 11.5993 0 0 0
572 2 -5.0815 18.5354 13.9113 0 0 0
573 2 -8.56652 19.684 15.3134 0 0 0
574 2 -7.57552 18.697 17.4334 0 0 0
575 2 -8.06652 19.477 18.9264 0 0 0
576 2 -9.63252 21.055 15.5504 0 0 0
577 2 -9.41252 21.036 17.8624 0 0 0
578 2 -4.2355 17.1834 19.2645 0 0 0
579 2 -3.2445 16.1964 21.3845 0 0 0
580 2 -3.7355 16.9764 22.8775 0 0 0
581 2 -5.3015 18.5544 19.5015 0 0 0
582 2 -5.0815 18.5354 21.8135 0 0 0
583 2 -8.56652 19.684 23.2156 0 0 0
584 2 -7.57552 18.697 25.3356 0 0 0
585 2 -8.06652 19.477 26.8286 0 0 0
586 2 -9.63252 21.055 23.4526 0 0 0
587 2 -9.41252 21.036 25.7646 0 0 0
588 2 -4.2355 17.1834 27.1667 0 0 0
589 2 -3.2445 16.1964 29.2867 0 0 0
590 2 -3.7355 16.9764 30.7797 0 0 0
591 2 -5.3015 18.5544 27.4037 0 0 0
592 2 -5.0815 18.5354 29.7157 0 0 0
593 2 -8.56652 19.684 31.1178 0 0 0
594 2 -7.57552 18.697 33.2378 0 0 0
595 2 -8.06652 19.477 34.7308 0 0 0
596 2 -9.63252 21.055 31.3548 0 0 0
597 2 -9.41252 21.036 33.6668 0 0 0
598 2 -4.2355 17.1834 35.0689 0 0 0
599 2 -3.2445 16.1964 37.1889 0 0 0
600 2 -3.7355 16.9764 38.6819 0 0 0
601 2 -5.3015 18.5544 35.3059 0 0 0
602 2 -5.0815 18.5354 37.6179 0 0 0
603 2 -8.56652 19.684 39.02 0 0 0
604 2 -7.57552 18.697 41.14 0 0 0
605 2 -8.06652 19.477 42.633 0 0 0
606 2 -9.63252 21.055 39.257 0 0 0
607 2 -9.41252 21.036 41.569 0 0 0
608 2 -4.2355 17.1834 42.9711 0 0 0
609 2 -3.2445 16.1964 45.0911 0 0 0
610 2 -3.7355 16.9764 46.5841 0 0 0
611 2 -5.3015 18.5544 43.2081 0 0 0
612 2 -5.0815 18.5354 45.5201 0 0 0
613 2 -12.8967 27.184 46.9222 0 0 0
614 2 -11.9057 26.197 1.62901 0 0 0
615 2 -12.3967 26.977 3.12201 0 0 0
616 2 -13.9627 28.555 47.1592 0 0 0
617 2 -13.7427 28.536 2.05801 0 0 0
618 2 -8.56565 24.6835 3.46011 0 0 0
619 2 -7.57465 23.6965 5.58011 0 0 0
620 2 -8.06565 24.4765 7.07311 0 0 0
621 2 -9.63165 26.0545 3.69711 0 0 0
622 2 -9.41165 26.0355 6.00911 0 0 0
623 2 -12.8967 27.184 7.41121 0 0 0
624 2 -11.9057 26.197 9.53121 0 0 0
625 2 -12.3967 26.977 11.0242 0 0 0
626 2 -13.9627 28.555 7.64821 0 0 0
627 2 -13.7427 28.536 9.96021 0 0 0
628 2 -8.56565 24.6835 11.3623 0 0 0
629 2 -7.57465 23.6965 13.4823 0 0 0
630 2 -8.06565 24.4765 14.9753 0 0 0
631 2 -9.63165 26.0545 11.5993 0 0 0
632 2 -9.41165 26.0355 13.9113 0 0 0
633 2 -12.8967 27.184 15.3134 0 0 0
634 2 -11.9057 26.197 17.4334 0 0 0
635 2 -12.3967 26.977 18.9264 0 0 0
636 2 -13.9627 28.555 15.5504 0 0 0
637 2 -13.7427 28.536 17.8624 0 0 0
638 2 -8.56565 24.6835 19.2645 0 0 0
639 2 -7.57465 23.6965 21.3845 0 0 0
640 2 -8.06565 24.4765 22.8775 0 0 0
641 2 -9.63165 26.0545 19.5015 0 0 0
642 2 -9.41165 26.0355 21.8135 0 0 0
643 2 -12.8967 27.184 23.2156 0 0 0
644 2 -11.9057 26.197 25.3356 0 0 0
645 2 -12.3967 26.977 26.8286 0 0 0
646 2 -13.9627 28.555 23.4526 0 0 0
647 2 -13.7427 28.536 25.7646 0 0 0
648 2 -8.56565 24.6835 27.1667 0 0 0
649 2 -7.57465 23.6965 29.2867 0 0 0
650 2 -8.06565 24.4765 30.7797 0 0 0
651 2 -9.63165 26.0545 27.4037 0 0 0
652 2 -9.41165 26.0355 29.7157 0 0 0
653 2 -12.8967 27.184 31.1178 0 0 0
654 2 -11.9057 26.197 33.2378 0 0 0
655 2 -12.3967 26.977 34.7308 0 0 0
656 2 -13.9627 28.555 31.3548 0 0 0
657 2 -13.7427 28.536 33.6668 0 0 0
658 2 -8.56565 24.6835 35.0689 0 0 0
659 2 -7.57465 23.6965 37.1889 0 0 0
660 2 -8.06565 24.4765 38.6819 0 0 0
661 2 -9.63165 26.0545 35.3059 0 0 0
662 2 -9.41165 26.0355 37.6179 0 0 0
663 2 -12.8967 27.184 39.02 0 0 0
664 2 -11.9057 26.197 41.14 0 0 0
665 2 -12.3967 26.977 42.633 0 0 0
666 2 -13.9627 28.555 39.257 0 0 0
667 2 -13.7427 28.536 41.569 0 0 0
668 2 -8.56565 24.6835 42.9711 0 0 0
669 2 -7.57465 23.6965 45.0911 0 0 0
670 2 -8.06565 24.4765 46.5841 0 0 0
671 2 -9.63165 26.0545 43.2081 0 0 0
672 2 -9.41165 26.0355 45.5201 0 0 0
673 2 -17.2268 34.684 46.9222 0 0 0
674 2 -16.2358 33.697 1.62901 0 0 0
675 2 -16.7268 34.477 3.12201 0 0 0
676 2 -18.2928 36.055 47.1592 0 0 0
677 2 -18.0728 36.036 2.05801 0 0 0
678 2 -12.8958 32.1835 3.46011 0 0 0
679 2 -11.9048 31.1965 5.58011 0 0 0
680 2 -12.3958 31.9765 7.07311 0 0 0
681 2 -13.9618 33.5545 3.69711 0 0 0
682 2 -13.7418 33.5355 6.00911 0 0 0
683 2 -17.2268 34.684 7.41121 0 0 0
684 2 -16.2358 33.697 9.53121 0 0 0
685 2 -16.7268 34.477 11.0242 0 0 0
686 2 -18.2928 36.055 7.64821 0 0 0
687 2 -18.0728 36.036 9.96021 0 0 0
688 2 -12.8958 32.1835 11.3623 0 0 0
689 2 -11.9048 31.1965 13.4823 0 0 0
690 2 -12.3958 31.9765 14.9753 0 0 0
691 2 -13.9618 33.5545 11.5993 0 0 0
692 2 -13.7418 33.5355 13.9113 0 0 0
693 2 -17.2268 34.684 15.3134 0 0 0
694 2 -16.2358 33.697 17.4334 0 0 0
695 2 -16.7268 34.477 18.9264 0 0 0
696 2 -18.2928 36.055 15.5504 0 0 0
697 2 -18.0728 36.036 17.8624 0 0 0
698 2 -12.8958 32.1835 19.2645 0 0 0
699 2 -11.9048 31.1965 21.3845 0 0 0
700 2 -12.3958 31.9765 22.8775 0 0 0
701 2 -13.9618 33.5545 19.5015 0 0 0
702 2 -13.7418 33.5355 21.8135 0 0 0
703 2 -17.2268 34.684 23.2156 0 0 0
704 2 -16.2358 33.697 25.3356 0 0 0
705 2 -16.7268 34.477 26.8286 0 0 0
706 2 -18.2928 36.055 23.4526 0 0 0
707 2 -18.0728 36.036 25.7646 0 0 0
708 2 -12.8958 32.1835 27.1667 0 0 0
709 2 -11.9048 31.1965 29.2867 0 0 0
710 2 -12.3958 31.9765 30.7797 0 0 0
711 2 -13.9618 33.5545 27.4037 0 0 0
712 2 -13.7418 33.5355 29.7157 0 0 0
713 2 -17.2268 34.684 31.1178 0 0 0
714 2 -16.2358 33.697 33.2378 0 0 0
715 2 -16.7268 34.477 34.7308 0 0 0
716 2 -18.2928 36.055 31.3548 0 0 0
717 2 -18.0728 36.036 33.6668 0 0 0
718 2 -12.8958 32.1835 35.0689 0 0 0
719 2 -11.9048 31.1965 37.1889 0 0 0
720 2 -12.3958 31.9765 38.6819 0 0 0
721 2 -13.9618 33.5545 35.3059 0 0 0
722 2 -13.7418 33.5355 37.6179 0 0 0
723 2 -17.2268 34.684 39.02 0 0 0
724 2 -16.2358 33.697 41.14 0 0 0
725 2 -16.7268 34.477 42.633 0 0 0
726 2 -18.2928 36.055 39.257 0 0 0
727 2 -18.0728 36.036 41.569 0 0 0
728 2 -12.8958 32.1835 42.9711 0 0 0
729 2 -11.9048 31.1965 45.0911 0 0 0
730 2 -12.3958 31.9765 46.5841 0 0 0
731 2 -13.9618 33.5545 43.2081 0 0 0
732 2 -13.7418 33.5355 45.5201 0 0 0
733 2 -21.557 42.1841 46.9222 0 0 0
734 2 -20.566 41.1971 1.62901 0 0 0
735 2 -21.057 41.9771 3.12201 0 0 0
736 2 -22.623 43.5551 47.1592 0 0 0
737 2 -22.403 43.5361 2.05801 0 0 0
738 2 -17.226 39.6836 3.46011 0 0 0
739 2 -16.235 38.6966 5.58011 0 0 0
740 2 -16.726 39.4766 7.07311 0 0 0
741 2 -18.292 41.0546 3.69711 0 0 0
742 2 -18.072 41.0356 6.00911 0 0 0
743 2 -21.557 42.1841 7.41121 0 0 0
744 2 -20.566 41.1971 9.53121 0 0 0
745 2 -21.057 41.9771 11.0242 0 0 0
746 2 -22.623 43.5551 7.64821 0 0 0
747 2 -22.403 43.5361 9.96021 0 0 0
748 2 -17.226 39.6836 11.3623 0 0 0
749 2 -16.235 38.6966 13.4823 0 0 0
750 2 -16.726 39.4766 14.9753 0 0 0
751 2 -18.292 41.0546 11.5993 0 0 0
752 2 -18.072 41.0356 13.9113 0 0 0
753 2 -21.557 42.1841 15.3134 0 0 0
754 2 -20.566 41.1971 17.4334 0 0 0
755 2 -21.057 41.9771 18.9264 0 0 0
756 2 -22.623 43.5551 15.5504 0 0 0
757 2 -22.403 43.5361 17.8624 0 0 0
758 2 -17.226 39.6836 19.2645 0 0 0
759 2 -16.235 38.6966 21.3845 0 0 0
760 2 -16.726 39.4766 22.8775 0 0 0
761 2 -18.292 41.0546 19.5015 0 0 0
762 2 -18.072 41.0356 21.8135 0 0 0
763 2 -21.557 42.1841 23.2156 0 0 0
764 2 -20.566 41.1971 25.3356 0 0 0
765 2 -21.057 41.9771 26.8286 0 0 0
766 2 -22.623 43.5551 23.4526 0 0 0
767 2 -22.403 43.5361 25.7646 0 0 0
768 2 -17.226 39.6836 27.1667 0 0 0
769 2 -16.235 38.6966 29.2867 0 0 0
770 2 -16.726 39.4766 30.7797 0 0 0
771 2 -18.292 41.0546 27.4037 0 0 0
772 2 -18.072 41.0356 29.7157 0 0 0
773 2 -21.557 42.1841 31.1178 0 0 0
774 2 -20.566 41.1971 33.2378 0 0 0
775 2 -21.057 41.9771 34.7308 0 0 0
776 2 -22.623 43.5551 31.3548 0 0 0
777 2 -22.403 43.5361 33.6668 0 0 0
778 2 -17.226 39.6836 35.0689 0 0 0
779 2 -16.235 38.6966 37.1889 0 0 0
780 2 -16.726 39.4766 38.6819 0 0 0
781 2 -18.292 41.0546 35.3059 0 0 0
782 2 -18.072 41.0356 37.6179 0 0 0
783 2 -21.557 42.1841 39.02 0 0 0
784 2 -20.566 41.1971 41.14 0 0 0
785 2 -21.057 41.9771 42.633 0 0 0
786 2 -22.623 43.5551 39.257 0 0 0
787 2 -22.403 43.5361 41.569 0 0 0
788 2 -17.226 39.6836 42.9711 0 0 0
789 2 -16.235 38.6966 45.0911 0 0 0
790 2 -16.726 39.4766 46.5841 0 0 0
791 2 -18.292 41.0546 43.2081 0 0 0
792 2 -18.072 41.0356 45.5201 0 0 0
793 2 8.75408 4.68388 46.9222 0 0 0
794 2 9.74508 3.69688 1.62901 0 0 0
795 2 9.25408 4.47688 3.12201 0 0 0
796 2 7.68808 6.05488 47.1592 0 0 0
797 2 7.90808 6.03588 2.05801 0 0 0
798 2 13.0851 2.18336 3.46011 0 0 0
799 2 14.0761 1.19636 5.58011 0 0 0
800 2 13.5851 1.97636 7.07311 0 0 0
801 2 12.0191 3.55436 3.69711 0 0 0
802 2 12.2391 3.53536 6.00911 0 0 0
803 2 8.75408 4.68388 7.41121 0 0 0
804 2 9.74508 3.69688 9.53121 0 0 0
805 2 9.25408 4.47688 11.0242 0 0 0
806 2 7.68808 6.05488 7.64821 0 0 0
807 2 7.90808 6.03588 9.96021 0 0 0
808 2 13.0851 2.18336 11.3623 0 0 0
809 2 14.0761 1.19636 13.4823 0 0 0
810 2 13.5851 1.97636 14.9753 0 0 0
811 2 12.0191 3.55436 11.5993 0 0 0
812 2 12.2391 3.53536 13.9113 0 0 0
813 2 8.75408 4.68388 15.3134 0 0 0
814 2 9.74508 3.69688 17.4334 0 0 0
815 2 9.25408 4.47688 18.9264 0 0 0
816 2 7.68808 6.05488 15.5504 0 0 0
817 2 7.90808 6.03588 17.8624 0 0 0
818 2 13.0851 2.18336 19.2645 0 0 0
819 2 14.0761 1.19636 21.3845 0 0 0
820 2 13.5851 1.97636 22.8775 0 0 0
821 2 12.0191 3.55436 19.5015 0 0 0
822 2 12.2391 3.53536 21.8135 0 0 0
823 2 8.75408 4.68388 23.2156 0 0 0
824 2 9.74508 3.69688 25.3356 0 0 0
825 2 9.25408 4.47688 26.8286 0 0 0