(written by ASE)

5184 atoms
5 atom types

0.0      51.961799999999997  xlo xhi
0.0      45.000238826366243  ylo yhi
0.0      47.413199999999996  zlo zhi
    -25.980899999999988                       0                       0  xy xz yz

Atoms # atomic

     1   1    -0.20921816977643282      5.2878756499829382      1.4560050100963049
     2   1      4.1217978602235661      2.7873623791978552      5.4071050100963038
     3   1    -0.20921816977643282      5.2878756499829382      9.3582050100963041
     4   1      4.1217978602235661      2.7873623791978552      13.309305010096303
     5   1    -0.20921816977643282      5.2878756499829382      17.260405010096303
     6   1      4.1217978602235661      2.7873623791978552      21.211505010096303
     7   1    -0.20921816977643282      5.2878756499829382      25.162605010096303
     8   1      4.1217978602235661      2.7873623791978552      29.113705010096304
     9   1    -0.20921816977643282      5.2878756499829382        33.0648050100963
    10   1      4.1217978602235661      2.7873623791978552      37.015905010096304
    11   1    -0.20921816977643282      5.2878756499829382      40.967005010096301
    12   1      4.1217978602235661      2.7873623791978552      44.918105010096298
    13   1     -4.5393681697764308      12.787915454377313      1.4560050100963049
    14   1    -0.20835213977643186       10.28740218359223      5.4071050100963038
    15   1     -4.5393681697764308      12.787915454377313      9.3582050100963041
    16   1    -0.20835213977643186       10.28740218359223      13.309305010096303
    17   1     -4.5393681697764308      12.787915454377313      17.260405010096303
    18   1    -0.20835213977643186       10.28740218359223      21.211505010096303
    19   1     -4.5393681697764308      12.787915454377313      25.162605010096303
    20   1    -0.20835213977643186       10.28740218359223      29.113705010096304
    21   1     -4.5393681697764308      12.787915454377313        33.0648050100963
    22   1    -0.20835213977643186       10.28740218359223      37.015905010096304
    23   1     -4.5393681697764308      12.787915454377313      40.967005010096301
    24   1    -0.20835213977643186       10.28740218359223      44.918105010096298
    25   1     -8.8695181697764287      20.287955258771689      1.4560050100963049
    26   1     -4.5385021397764298      17.787441987986604      5.4071050100963038
    27   1     -8.8695181697764287      20.287955258771689      9.3582050100963041
    28   1     -4.5385021397764298      17.787441987986604      13.309305010096303
    29   1     -8.8695181697764287      20.287955258771689      17.260405010096303
    30   1     -4.5385021397764298      17.787441987986604      21.211505010096303
    31   1     -8.8695181697764287      20.287955258771689      25.162605010096303
    32   1     -4.5385021397764298      17.787441987986604      29.113705010096304
    33   1     -8.8695181697764287      20.287955258771689        33.0648050100963
    34   1     -4.5385021397764298      17.787441987986604      37.015905010096304
    35   1     -8.8695181697764287      20.287955258771689      40.967005010096301
    36   1     -4.5385021397764298      17.787441987986604      44.918105010096298
    37   1     -13.199668169776427      27.787995063166058      1.4560050100963049
    38   1     -8.8686521397764277      25.287481792380976      5.4071050100963038
    39   1     -13.199668169776427      27.787995063166058      9.3582050100963041
    40   1     -8.8686521397764277      25.287481792380976      13.309305010096303
    41   1     -13.199668169776427      27.787995063166058      17.260405010096303
    42   1     -8.8686521397764277      25.287481792380976      21.211505010096303
    43   1     -13.199668169776427      27.787995063166058      25.162605010096303
    44   1     -8.8686521397764277      25.287481792380976      29.113705010096304
    45   1     -13.199668169776427      27.787995063166058        33.0648050100963
    46   1     -8.8686521397764277      25.287481792380976      37.015905010096304
    47   1     -13.199668169776427      27.787995063166058      40.967005010096301
    48   1     -8.8686521397764277      25.287481792380976      44.918105010096298
    49   1     -17.529818169776426      35.288034867560434      1.4560050100963049
    50   1     -13.198802139776426      32.787521596775349      5.4071050100963038
    51   1     -17.529818169776426      35.288034867560434      9.3582050100963041
    52   1     -13.198802139776426      32.787521596775349      13.309305010096303
    53   1     -17.529818169776426      35.288034867560434      17.260405010096303
    54   1     -13.198802139776426      32.787521596775349      21.211505010096303
    55   1     -17.529818169776426      35.288034867560434      25.162605010096303
    56   1     -13.198802139776426      32.787521596775349      29.113705010096304
    57   1     -17.529818169776426      35.288034867560434        33.0648050100963
    58   1     -13.198802139776426      32.787521596775349      37.015905010096304
    59   1     -17.529818169776426      35.288034867560434      40.967005010096301
    60   1     -13.198802139776426      32.787521596775349      44.918105010096298
    61   1     -21.859968169776423       42.78807467195481      1.4560050100963049
    62   1     -17.528952139776422      40.287561401169725      5.4071050100963038
    63   1     -21.859968169776423       42.78807467195481      9.3582050100963041
    64   1     -17.528952139776422      40.287561401169725      13.309305010096303
    65   1     -21.859968169776423       42.78807467195481      17.260405010096303
    66   1     -17.528952139776422      40.287561401169725      21.211505010096303
    67   1     -21.859968169776423       42.78807467195481      25.162605010096303
    68   1     -17.528952139776422      40.287561401169725      29.113705010096304
    69   1     -21.859968169776423       42.78807467195481        33.0648050100963
    70   1     -17.528952139776422      40.287561401169725      37.015905010096304
    71   1     -21.859968169776423       42.78807467195481      40.967005010096301
    72   1     -17.528952139776422      40.287561401169725      44.918105010096298
    73   1      8.4510818302235666      5.2878756499829382      1.4560050100963049
    74   1      12.782097860223566      2.7873623791978552      5.4071050100963038
    75   1      8.4510818302235666      5.2878756499829382      9.3582050100963041
    76   1      12.782097860223566      2.7873623791978552      13.309305010096303
    77   1      8.4510818302235666      5.2878756499829382      17.260405010096303
    78   1      12.782097860223566      2.7873623791978552      21.211505010096303
    79   1      8.4510818302235666      5.2878756499829382      25.162605010096303
    80   1      12.782097860223566      2.7873623791978552      29.113705010096304
    81   1      8.4510818302235666      5.2878756499829382        33.0648050100963
    82   1      12.782097860223566      2.7873623791978552      37.015905010096304
    83   1      8.4510818302235666      5.2878756499829382      40.967005010096301
    84   1      12.782097860223566      2.7873623791978552      44.918105010096298
    85   1      4.1209318302235687      12.787915454377313      1.4560050100963049
    86   1      8.4519478602235676       10.28740218359223      5.4071050100963038
    87   1      4.1209318302235687      12.787915454377313      9.3582050100963041
    88   1      8.4519478602235676       10.28740218359223      13.309305010096303
    89   1      4.1209318302235687      12.787915454377313      17.260405010096303
    90   1      8.4519478602235676       10.28740218359223      21.211505010096303
    91   1      4.1209318302235687      12.787915454377313      25.162605010096303
    92   1      8.4519478602235676       10.28740218359223      29.113705010096304
    93   1      4.1209318302235687      12.787915454377313        33.0648050100963
    94   1      8.4519478602235676       10.28740218359223      37.015905010096304
    95   1      4.1209318302235687      12.787915454377313      40.967005010096301
    96   1      8.4519478602235676       10.28740218359223      44.918105010096298
    97   1    -0.20921816977642926      20.287955258771689      1.4560050100963049
    98   1      4.1217978602235696      17.787441987986604      5.4071050100963038
    99   1    -0.20921816977642926      20.287955258771689      9.3582050100963041
   100   1      4.1217978602235696      17.787441987986604      13.309305010096303
   101   1    -0.20921816977642926      20.287955258771689      17.260405010096303
   102   1      4.1217978602235696      17.787441987986604      21.211505010096303
   103   1    -0.20921816977642926      20.287955258771689      25.162605010096303
   104   1      4.1217978602235696      17.787441987986604      29.113705010096304
   105   1    -0.20921816977642926      20.287955258771689        33.0648050100963
   106   1      4.1217978602235696      17.787441987986604      37.015905010096304
   107   1    -0.20921816977642926      20.287955258771689      40.967005010096301
   108   1      4.1217978602235696      17.787441987986604      44.918105010096298
   109   1     -4.5393681697764272      27.787995063166058      1.4560050100963049
   110   1     -0.2083521397764283      25.287481792380976      5.4071050100963038
   111   1     -4.5393681697764272      27.787995063166058      9.3582050100963041
   112   1     -0.2083521397764283      25.287481792380976      13.309305010096303
   113   1     -4.5393681697764272      27.787995063166058      17.260405010096303
   114   1     -0.2083521397764283      25.287481792380976      21.211505010096303
   115   1     -4.5393681697764272      27.787995063166058      25.162605010096303
   116   1     -0.2083521397764283      25.287481792380976      29.113705010096304
   117   1     -4.5393681697764272      27.787995063166058        33.0648050100963
   118   1     -0.2083521397764283      25.287481792380976      37.015905010096304
   119   1     -4.5393681697764272      27.787995063166058      40.967005010096301
   120   1     -0.2083521397764283      25.287481792380976      44.918105010096298
   121   1     -8.8695181697764252      35.288034867560434      1.4560050100963049
   122   1     -4.5385021397764262      32.787521596775349      5.4071050100963038
   123   1     -8.8695181697764252      35.288034867560434      9.3582050100963041
   124   1     -4.5385021397764262      32.787521596775349      13.309305010096303
   125   1     -8.8695181697764252      35.288034867560434      17.260405010096303
   126   1     -4.5385021397764262      32.787521596775349      21.211505010096303
   127   1     -8.8695181697764252      35.288034867560434      25.162605010096303
   128   1     -4.5385021397764262      32.787521596775349      29.113705010096304
   129   1     -8.8695181697764252      35.288034867560434        33.0648050100963
   130   1     -4.5385021397764262      32.787521596775349      37.015905010096304
   131   1     -8.8695181697764252      35.288034867560434      40.967005010096301
   132   1     -4.5385021397764262      32.787521596775349      44.918105010096298
   133   1     -13.199668169776421       42.78807467195481      1.4560050100963049
   134   1     -8.8686521397764224      40.287561401169725      5.4071050100963038
   135   1     -13.199668169776421       42.78807467195481      9.3582050100963041
   136   1     -8.8686521397764224      40.287561401169725      13.309305010096303
   137   1     -13.199668169776421       42.78807467195481      17.260405010096303
   138   1     -8.8686521397764224      40.287561401169725      21.211505010096303
   139   1     -13.199668169776421       42.78807467195481      25.162605010096303
   140   1     -8.8686521397764224      40.287561401169725      29.113705010096304
   141   1     -13.199668169776421       42.78807467195481        33.0648050100963
   142   1     -8.8686521397764224      40.287561401169725      37.015905010096304
   143   1     -13.199668169776421       42.78807467195481      40.967005010096301
   144   1     -8.8686521397764224      40.287561401169725      44.918105010096298
   145   1      17.111381830223564      5.2878756499829382      1.4560050100963049
   146   1      21.442397860223565      2.7873623791978552      5.4071050100963038
   147   1      17.111381830223564      5.2878756499829382      9.3582050100963041
   148   1      21.442397860223565      2.7873623791978552      13.309305010096303
   149   1      17.111381830223564      5.2878756499829382      17.260405010096303
   150   1      21.442397860223565      2.7873623791978552      21.211505010096303
   151   1      17.111381830223564      5.2878756499829382      25.162605010096303
   152   1      21.442397860223565      2.7873623791978552      29.113705010096304
   153   1      17.111381830223564      5.2878756499829382        33.0648050100963
   154   1      21.442397860223565      2.7873623791978552      37.015905010096304
   155   1      17.111381830223564      5.2878756499829382      40.967005010096301
   156   1      21.442397860223565      2.7873623791978552      44.918105010096298
   157   1      12.781231830223568      12.787915454377313      1.4560050100963049
   158   1      17.112247860223569       10.28740218359223      5.4071050100963038
   159   1      12.781231830223568      12.787915454377313      9.3582050100963041
   160   1      17.112247860223569       10.28740218359223      13.309305010096303
   161   1      12.781231830223568      12.787915454377313      17.260405010096303
   162   1      17.112247860223569       10.28740218359223      21.211505010096303
   163   1      12.781231830223568      12.787915454377313      25.162605010096303
   164   1      17.112247860223569       10.28740218359223      29.113705010096304
   165   1      12.781231830223568      12.787915454377313        33.0648050100963
   166   1      17.112247860223569       10.28740218359223      37.015905010096304
   167   1      12.781231830223568      12.787915454377313      40.967005010096301
   168   1      17.112247860223569       10.28740218359223      44.918105010096298
   169   1      8.4510818302235702      20.287955258771689      1.4560050100963049
   170   1      12.782097860223569      17.787441987986604      5.4071050100963038
   171   1      8.4510818302235702      20.287955258771689      9.3582050100963041
   172   1      12.782097860223569      17.787441987986604      13.309305010096303
   173   1      8.4510818302235702      20.287955258771689      17.260405010096303
   174   1      12.782097860223569      17.787441987986604      21.211505010096303
   175   1      8.4510818302235702      20.287955258771689      25.162605010096303
   176   1      12.782097860223569      17.787441987986604      29.113705010096304
   177   1      8.4510818302235702      20.287955258771689        33.0648050100963
   178   1      12.782097860223569      17.787441987986604      37.015905010096304
   179   1      8.4510818302235702      20.287955258771689      40.967005010096301
   180   1      12.782097860223569      17.787441987986604      44.918105010096298
   181   1      4.1209318302235722      27.787995063166058      1.4560050100963049
   182   1      8.4519478602235711      25.287481792380976      5.4071050100963038
   183   1      4.1209318302235722      27.787995063166058      9.3582050100963041
   184   1      8.4519478602235711      25.287481792380976      13.309305010096303
   185   1      4.1209318302235722      27.787995063166058      17.260405010096303
   186   1      8.4519478602235711      25.287481792380976      21.211505010096303
   187   1      4.1209318302235722      27.787995063166058      25.162605010096303
   188   1      8.4519478602235711      25.287481792380976      29.113705010096304
   189   1      4.1209318302235722      27.787995063166058        33.0648050100963
   190   1      8.4519478602235711      25.287481792380976      37.015905010096304
   191   1      4.1209318302235722      27.787995063166058      40.967005010096301
   192   1      8.4519478602235711      25.287481792380976      44.918105010096298
   193   1    -0.20921816977642571      35.288034867560434      1.4560050100963049
   194   1      4.1217978602235732      32.787521596775349      5.4071050100963038
   195   1    -0.20921816977642571      35.288034867560434      9.3582050100963041
   196   1      4.1217978602235732      32.787521596775349      13.309305010096303
   197   1    -0.20921816977642571      35.288034867560434      17.260405010096303
   198   1      4.1217978602235732      32.787521596775349      21.211505010096303
   199   1    -0.20921816977642571      35.288034867560434      25.162605010096303
   200   1      4.1217978602235732      32.787521596775349      29.113705010096304
   201   1    -0.20921816977642571      35.288034867560434        33.0648050100963
   202   1      4.1217978602235732      32.787521596775349      37.015905010096304
   203   1    -0.20921816977642571      35.288034867560434      40.967005010096301
   204   1      4.1217978602235732      32.787521596775349      44.918105010096298
   205   1     -4.5393681697764219       42.78807467195481      1.4560050100963049
   206   1    -0.20835213977642297      40.287561401169725      5.4071050100963038
   207   1     -4.5393681697764219       42.78807467195481      9.3582050100963041
   208   1    -0.20835213977642297      40.287561401169725      13.309305010096303
   209   1     -4.5393681697764219       42.78807467195481      17.260405010096303
   210   1    -0.20835213977642297      40.287561401169725      21.211505010096303
   211   1     -4.5393681697764219       42.78807467195481      25.162605010096303
   212   1    -0.20835213977642297      40.287561401169725      29.113705010096304
   213   1     -4.5393681697764219       42.78807467195481        33.0648050100963
   214   1    -0.20835213977642297      40.287561401169725      37.015905010096304
   215   1     -4.5393681697764219       42.78807467195481      40.967005010096301
   216   1    -0.20835213977642297      40.287561401169725      44.918105010096298
   217   1      25.771681830223564      5.2878756499829382      1.4560050100963049
   218   1      30.102697860223564      2.7873623791978552      5.4071050100963038
   219   1      25.771681830223564      5.2878756499829382      9.3582050100963041
   220   1      30.102697860223564      2.7873623791978552      13.309305010096303
   221   1      25.771681830223564      5.2878756499829382      17.260405010096303
   222   1      30.102697860223564      2.7873623791978552      21.211505010096303
   223   1      25.771681830223564      5.2878756499829382      25.162605010096303
   224   1      30.102697860223564      2.7873623791978552      29.113705010096304
   225   1      25.771681830223564      5.2878756499829382        33.0648050100963
   226   1      30.102697860223564      2.7873623791978552      37.015905010096304
   227   1      25.771681830223564      5.2878756499829382      40.967005010096301
   228   1      30.102697860223564      2.7873623791978552      44.918105010096298
   229   1      21.441531830223568      12.787915454377313      1.4560050100963049
   230   1      25.772547860223568       10.28740218359223      5.4071050100963038
   231   1      21.441531830223568      12.787915454377313      9.3582050100963041
   232   1      25.772547860223568       10.28740218359223      13.309305010096303
   233   1      21.441531830223568      12.787915454377313      17.260405010096303
   234   1      25.772547860223568       10.28740218359223      21.211505010096303
   235   1      21.441531830223568      12.787915454377313      25.162605010096303
   236   1      25.772547860223568       10.28740218359223      29.113705010096304
   237   1      21.441531830223568      12.787915454377313        33.0648050100963
   238   1      25.772547860223568       10.28740218359223      37.015905010096304
   239   1      21.441531830223568      12.787915454377313      40.967005010096301
   240   1      25.772547860223568       10.28740218359223      44.918105010096298
   241   1      17.111381830223571      20.287955258771689      1.4560050100963049
   242   1      21.442397860223569      17.787441987986604      5.4071050100963038
   243   1      17.111381830223571      20.287955258771689      9.3582050100963041
   244   1      21.442397860223569      17.787441987986604      13.309305010096303
   245   1      17.111381830223571      20.287955258771689      17.260405010096303
   246   1      21.442397860223569      17.787441987986604      21.211505010096303
   247   1      17.111381830223571      20.287955258771689      25.162605010096303
   248   1      21.442397860223569      17.787441987986604      29.113705010096304
   249   1      17.111381830223571      20.287955258771689        33.0648050100963
   250   1      21.442397860223569      17.787441987986604      37.015905010096304
   251   1      17.111381830223571      20.287955258771689      40.967005010096301
   252   1      21.442397860223569      17.787441987986604      44.918105010096298
   253   1      12.781231830223572      27.787995063166058      1.4560050100963049
   254   1      17.112247860223569      25.287481792380976      5.4071050100963038
   255   1      12.781231830223572      27.787995063166058      9.3582050100963041
   256   1      17.112247860223569      25.287481792380976      13.309305010096303
   257   1      12.781231830223572      27.787995063166058      17.260405010096303
   258   1      17.112247860223569      25.287481792380976      21.211505010096303
   259   1      12.781231830223572      27.787995063166058      25.162605010096303
   260   1      17.112247860223569      25.287481792380976      29.113705010096304
   261   1      12.781231830223572      27.787995063166058        33.0648050100963
   262   1      17.112247860223569      25.287481792380976      37.015905010096304
   263   1      12.781231830223572      27.787995063166058      40.967005010096301
   264   1      17.112247860223569      25.287481792380976      44.918105010096298
   265   1      8.4510818302235737      35.288034867560434      1.4560050100963049
   266   1      12.782097860223573      32.787521596775349      5.4071050100963038
   267   1      8.4510818302235737      35.288034867560434      9.3582050100963041
   268   1      12.782097860223573      32.787521596775349      13.309305010096303
   269   1      8.4510818302235737      35.288034867560434      17.260405010096303
   270   1      12.782097860223573      32.787521596775349      21.211505010096303
   271   1      8.4510818302235737      35.288034867560434      25.162605010096303
   272   1      12.782097860223573      32.787521596775349      29.113705010096304
   273   1      8.4510818302235737      35.288034867560434        33.0648050100963
   274   1      12.782097860223573      32.787521596775349      37.015905010096304
   275   1      8.4510818302235737      35.288034867560434      40.967005010096301
   276   1      12.782097860223573      32.787521596775349      44.918105010096298
   277   1      4.1209318302235776       42.78807467195481      1.4560050100963049
   278   1      8.4519478602235765      40.287561401169725      5.4071050100963038
   279   1      4.1209318302235776       42.78807467195481      9.3582050100963041
   280   1      8.4519478602235765      40.287561401169725      13.309305010096303
   281   1      4.1209318302235776       42.78807467195481      17.260405010096303
   282   1      8.4519478602235765      40.287561401169725      21.211505010096303
   283   1      4.1209318302235776       42.78807467195481      25.162605010096303
   284   1      8.4519478602235765      40.287561401169725      29.113705010096304
   285   1      4.1209318302235776       42.78807467195481        33.0648050100963
   286   1      8.4519478602235765      40.287561401169725      37.015905010096304
   287   1      4.1209318302235776       42.78807467195481      40.967005010096301
   288   1      8.4519478602235765      40.287561401169725      44.918105010096298
   289   1      34.431981830223563      5.2878756499829382      1.4560050100963049
   290   1      38.762997860223564      2.7873623791978552      5.4071050100963038
   291   1      34.431981830223563      5.2878756499829382      9.3582050100963041
   292   1      38.762997860223564      2.7873623791978552      13.309305010096303
   293   1      34.431981830223563      5.2878756499829382      17.260405010096303
   294   1      38.762997860223564      2.7873623791978552      21.211505010096303
   295   1      34.431981830223563      5.2878756499829382      25.162605010096303
   296   1      38.762997860223564      2.7873623791978552      29.113705010096304
   297   1      34.431981830223563      5.2878756499829382        33.0648050100963
   298   1      38.762997860223564      2.7873623791978552      37.015905010096304
   299   1      34.431981830223563      5.2878756499829382      40.967005010096301
   300   1      38.762997860223564      2.7873623791978552      44.918105010096298
   301   1      30.101831830223567      12.787915454377313      1.4560050100963049
   302   1      34.432847860223568       10.28740218359223      5.4071050100963038
   303   1      30.101831830223567      12.787915454377313      9.3582050100963041
   304   1      34.432847860223568       10.28740218359223      13.309305010096303
   305   1      30.101831830223567      12.787915454377313      17.260405010096303
   306   1      34.432847860223568       10.28740218359223      21.211505010096303
   307   1      30.101831830223567      12.787915454377313      25.162605010096303
   308   1      34.432847860223568       10.28740218359223      29.113705010096304
   309   1      30.101831830223567      12.787915454377313        33.0648050100963
   310   1      34.432847860223568       10.28740218359223      37.015905010096304
   311   1      30.101831830223567      12.787915454377313      40.967005010096301
   312   1      34.432847860223568       10.28740218359223      44.918105010096298
   313   1      25.771681830223571      20.287955258771689      1.4560050100963049
   314   1      30.102697860223568      17.787441987986604      5.4071050100963038
   315   1      25.771681830223571      20.287955258771689      9.3582050100963041
   316   1      30.102697860223568      17.787441987986604      13.309305010096303
   317   1      25.771681830223571      20.287955258771689      17.260405010096303
   318   1      30.102697860223568      17.787441987986604      21.211505010096303
   319   1      25.771681830223571      20.287955258771689      25.162605010096303
   320   1      30.102697860223568      17.787441987986604      29.113705010096304
   321   1      25.771681830223571      20.287955258771689        33.0648050100963
   322   1      30.102697860223568      17.787441987986604      37.015905010096304
   323   1      25.771681830223571      20.287955258771689      40.967005010096301
   324   1      30.102697860223568      17.787441987986604      44.918105010096298
   325   1      21.441531830223568      27.787995063166058      1.4560050100963049
   326   1      25.772547860223568      25.287481792380976      5.4071050100963038
   327   1      21.441531830223568      27.787995063166058      9.3582050100963041
   328   1      25.772547860223568      25.287481792380976      13.309305010096303
   329   1      21.441531830223568      27.787995063166058      17.260405010096303
   330   1      25.772547860223568      25.287481792380976      21.211505010096303
   331   1      21.441531830223568      27.787995063166058      25.162605010096303
   332   1      25.772547860223568      25.287481792380976      29.113705010096304
   333   1      21.441531830223568      27.787995063166058        33.0648050100963
   334   1      25.772547860223568      25.287481792380976      37.015905010096304
   335   1      21.441531830223568      27.787995063166058      40.967005010096301
   336   1      25.772547860223568      25.287481792380976      44.918105010096298
   337   1      17.111381830223571      35.288034867560434      1.4560050100963049
   338   1      21.442397860223572      32.787521596775349      5.4071050100963038
   339   1      17.111381830223571      35.288034867560434      9.3582050100963041
   340   1      21.442397860223572      32.787521596775349      13.309305010096303
   341   1      17.111381830223571      35.288034867560434      17.260405010096303
   342   1      21.442397860223572      32.787521596775349      21.211505010096303
   343   1      17.111381830223571      35.288034867560434      25.162605010096303
   344   1      21.442397860223572      32.787521596775349      29.113705010096304
   345   1      17.111381830223571      35.288034867560434        33.0648050100963
   346   1      21.442397860223572      32.787521596775349      37.015905010096304
   347   1      17.111381830223571      35.288034867560434      40.967005010096301
   348   1      21.442397860223572      32.787521596775349      44.918105010096298
   349   1      12.781231830223577       42.78807467195481      1.4560050100963049
   350   1      17.112247860223576      40.287561401169725      5.4071050100963038
   351   1      12.781231830223577       42.78807467195481      9.3582050100963041
   352   1      17.112247860223576      40.287561401169725      13.309305010096303
   353   1      12.781231830223577       42.78807467195481      17.260405010096303
   354   1      17.112247860223576      40.287561401169725      21.211505010096303
   355   1      12.781231830223577       42.78807467195481      25.162605010096303
   356   1      17.112247860223576      40.287561401169725      29.113705010096304
   357   1      12.781231830223577       42.78807467195481        33.0648050100963
   358   1      17.112247860223576      40.287561401169725      37.015905010096304