LAMMPS data file via write_data, version 29 Aug 2024, timestep = 1000, units = metal

1280 atoms
3 atom types

0 23.496 xlo xhi
0 23.496 ylo yhi
0 97 zlo zhi
0 0 0 xy xz yz

Masses

1 79.904
2 132.904999
3 207.199997

Atoms # atomic

46 1 3.2756374595327578 3.5963588387195733 0.03863727849657171 0 0 0
47 1 2.956197069469169 0.7177944731566153 2.3754455065742044 0 0 0
48 1 0.00362563506040908 3.616267893988664 2.7289205607982803 0 0 0
784 2 0.04968601606590139 0.7788539231519784 0.21900847385156244 0 0 0
1040 3 2.767333234307095 3.523193154706132 2.8450094678733264 0 0 0
226 1 8.651031970084443 2.4741846008939197 0.11169200412446785 0 0 0
227 1 8.393540635752544 0.750740936672459 3.2937029879228414 0 0 0
228 1 5.605840016933248 3.5987411414625012 3.0723636433822197 0 0 0
844 2 5.815354219683476 0.4802009362044108 0.24371904526220606 0 0 0
1100 3 8.571528990239884 3.6601058856797373 2.956251931477299 0 0 0
240 1 11.703668544971466 3.4670195268121202 3.457488021995693 0 0 0
848 2 11.443012966748315 0.12809488958133017 0.2768352241842254 0 0 0
36 1 17.404673029727093 3.704217432200243 2.916567899509347 -1 0 0
238 1 14.446407176095871 3.4113636766025768 0.5948460440068697 0 0 0
239 1 14.195346877437133 0.6451132473624803 3.478138176463868 0 0 0
780 2 16.933363761282067 0.5236815023099323 0.4714995627163026 -1 0 0
1104 3 14.475694995990795 3.4633150064298146 3.4718382835510346 0 0 0
34 1 20.385235760548312 2.8992963565023913 0.4407142361537664 -1 0 0
35 1 19.92209097438913 0.6185828710486856 3.458108084912171 -1 0 0
1036 3 20.36430540488906 3.5949530685960056 3.3887441237743556 -1 0 0
136 1 2.201797529774946 8.903254599931689 0.461359437497209 0 0 0
137 1 2.881332267588463 6.435073448111645 3.4147062432842556 0 0 0
1070 3 2.578951337364496 9.355909745313298 3.439284304210584 0 0 0
317 1 8.29702149265814 6.758449601444668 2.7728254695676817 0 0 0
874 2 5.596829740763835 6.316668368223116 0.728023831858008 0 0 0
878 2 11.281822299818478 5.9831106191342505 0.9038711742820092 0 0 0
328 1 13.52632390462705 9.301512233981866 0.2945247000628192 0 0 0
329 1 14.275520204106668 6.442129416600963 2.8094094622130332 0 0 0
810 2 17.60994391400873 6.516335417306192 0.5516677628369414 -1 0 0
1134 3 14.300290679005027 9.374294374028038 3.1100993357913547 0 0 0
138 1 23.10389216629075 8.975166495620119 3.39257669609516 -1 0 0
814 2 23.20953383341268 6.102305157389779 0.13245303114827708 -1 0 0
124 1 20.87370269731021 9.023437770675498 0.44042811313106434 -1 0 0
125 1 20.39738694088367 6.458295989612522 3.2533492179969197 -1 0 0
143 1 2.4630256770094467 12.471514200120744 2.644125244697612 0 0 0
316 1 9.296381536961034 9.571832092771459 0.4591476796592596 0 0 0
318 1 5.4127469689957355 9.649966956611893 3.3190073536201754 0 0 0
1130 3 8.52338923248154 9.66537310543063 3.169231039691155 0 0 0
323 1 8.65615921875814 12.581210220276816 4.384283641404562 0 0 0
876 2 5.409149053773509 11.538545902888261 0.021611452678669273 0 0 0
322 1 8.029879721187784 14.017618432777729 0.8257264360334502 0 0 0
330 1 11.384246499851717 9.660231390280284 3.6265340137941395 0 0 0
880 2 11.456619543623768 12.572696564978363 0.7968316224621076 0 0 0
126 1 17.384707393281 9.619857138097244 2.5975608138319375 -1 0 0
335 1 14.193416623224163 12.403252095458578 3.0714509009882818 0 0 0
812 2 17.594006666771044 12.628221250219037 0.40081545241977545 -1 0 0
1066 3 20.267554372449148 9.54770600364413 3.2442040527449736 -1 0 0
816 2 23.247602866206453 11.838322917570135 0.43973854932517753 -1 0 0
131 1 21.045022801907194 12.22358680770134 3.4995204446620116 -1 0 0
41 1 2.697501450140363 18.436886359825603 3.3859764033764597 0 -1 0
142 1 3.145740473607683 15.74911874457096 0.37135259958924527 0 0 0
782 2 0.02639606676880728 18.208429678889676 0.4336958021539675 0 -1 0
1072 3 2.719359067330349 15.596925336936035 3.2596133784151 0 0 0
221 1 8.408859311676338 18.22843825057552 2.315493399549937 0 -1 0
324 1 5.744409220767524 15.336129500165699 3.622983701185485 0 0 0
842 2 5.61555504346223 18.37409214746811 0.36162025134447 0 -1 0
1132 3 8.596462153328881 15.269093798705567 3.577624324161055 0 0 0
336 1 11.62093283769398 15.750620091338567 3.671401908099754 0 0 0
846 2 11.917022600534956 18.404764393575853 0.6485476036343333 0 -1 0
132 1 17.462465380985538 14.796360757772534 3.1390853885809364 -1 0 0
233 1 14.86080124158023 18.120711471865175 3.2395303042809647 0 -1 0
334 1 14.619620698236787 15.716358319099747 0.5359955576292872 0 0 0
778 2 17.301843123401703 17.84335082430547 0.4556711337494211 -1 -1 0
1136 3 14.558761456345968 15.284232636974755 3.364288252596311 0 0 0
144 1 23.229861026866086 15.588061334878285 3.392672136225106 -1 0 0
29 1 20.349433225272843 18.128011471889703 3.318162006874559 -1 -1 0
130 1 20.79771106654724 14.67158774218864 0.4471538174561124 -1 0 0
1068 3 20.25864906795571 15.11155695769285 3.3118844899898012 -1 0 0
40 1 2.2626081338123734 20.997128655289245 0.2062341856173645 0 -1 0
42 1 0.025305456507493947 21.0971217031943 3.677818655995897 0 -1 0
1038 3 2.788973483908386 21.430251970135203 2.9931598387895746 0 -1 0
220 1 8.943556279969055 21.31422214094151 0.264086889439124 0 -1 0
222 1 5.640516152172502 20.93224852035656 2.8380450319348904 0 -1 0
1098 3 8.613621341509159 20.997387340082714 3.030612127132917 0 -1 0
234 1 11.572837456948456 20.884518532566318 3.2674336295409243 0 -1 0
30 1 17.664785575236962 21.082805395229062 2.95401294050841 -1 -1 0
232 1 14.652822925678159 21.110819685088714 0.31961146939620233 0 -1 0
1102 3 14.848219090719564 21.15521614242029 3.196091426578188 0 -1 0
28 1 21.657760667235717 20.99454859019208 0.29334777523470856 -1 -1 0
1034 3 20.545435445585987 21.363546281837 3.1092091557364894 -1 -1 0
67 1 2.5021987717385503 2.9232135828781325 5.865656785640535 0 0 0
68 1 2.2032635106163063 0.29091322279967957 8.699710729950356 0 0 0
1047 3 2.766651118884457 3.3290809606226155 8.81800448862214 0 0 0
247 1 8.576211705419235 4.137792674270461 5.846745099772981 0 0 0
248 1 8.974234162767498 0.6401515918437259 8.104016152029835 0 0 0
249 1 5.721501472832325 2.976571483107231 8.933137236860457 0 0 0
851 2 5.677290869704675 0.7657674134646945 6.157712386566284 0 0 0
1107 3 8.781329288767575 3.5128605705825193 8.627929499050262 0 0 0
261 1 11.536409915425281 3.4926945784244268 8.545063302607106 0 0 0
855 2 11.487021199925595 0.16985124012984326 5.669200263333228 0 0 0
260 1 14.060384419669631 0.5080215544297204 8.871988136126674 0 0 0
259 1 14.986462589140908 4.052659631686943 6.327168050421153 0 0 0
787 2 17.239305874058644 0.6859911650503514 6.551691833518928 -1 0 0
1111 3 14.538110611322834 3.377960421478025 9.02864718525265 0 0 0
69 1 23.14220647096981 3.519265683931947 8.652644716718457 -1 0 0
791 2 23.117225666094463 0.740001323759688 6.282323697471356 -1 0 0
55 1 19.596190278675568 3.6082323894202566 6.0266743570060815 -1 0 0
56 1 20.44086100114832 0.4748690357355058 8.633546944029938 -1 0 0
1043 3 20.245395022819643 3.229470903393384 8.953195435996184 -1 0 0
158 1 3.363497743622591 6.303292816079149 8.5723425589157 0 0 0
821 2 0.23035374031904762 6.520412882467441 6.415970207968503 0 0 0
1077 3 2.7319932926374952 9.312473891514014 9.15588529516051 0 0 0
337 1 8.714905154167903 9.158319780766499 6.133106591798883 0 0 0
338 1 8.3783773408671 6.380969571038122 9.186730856376874 0 0 0
881 2 5.768390416081817 6.5656634277063555 6.114071548048208 0 0 0
1137 3 8.67511455948607 9.25280002420059 8.874776432893903 0 0 0
885 2 11.534631422920611 6.610452865859412 6.28081832179268 0 0 0
349 1 14.179563817167066 9.228914469030313 6.358829893231627 0 0 0
350 1 15.079734472889239 6.35409628318938 9.049300904657073 0 0 0
817 2 16.98603457472763 6.985907541139678 5.805371126119067 -1 0 0
146 1 20.113422115156595 6.3990967292352545 9.163887113148435 -1 0 0
1073 3 19.998250291975115 9.123873649107088 9.082436308614975 -1 0 0
157 1 2.261523517569804 9.873906962041026 6.171505320282867 0 0 0
339 1 5.700962638759248 9.624138575360005 8.662713801879379 0 0 0
344 1 8.897503408240837 12.276207440628552 8.665529086607426 0 0 0
883 2 5.245445693776025 12.688818846292236 5.675997125511656 0 0 0
887 2 11.67052684425778 12.637700056128018 5.928550716565857 0 0 0
356 1 13.373503759843443 12.147302672644255 8.955714775800535 0 0 0
147 1 17.244936660072455 9.695838921065754 8.718356621430939 -1 0 0
819 2 17.319440340288445 12.403724470958341 6.077799603500159 -1 0 0
145 1 19.81968340612139 9.567918732566087 6.087670896027223 -1 0 0
823 2 23.04138037367954 12.578832754858423 6.245859080735388 -1 0 0
152 1 20.49030213062411 12.063455087673086 8.443679068988484 -1 0 0
62 1 2.351502940640954 17.784459288716107 8.11329125045503 0 -1 0
163 1 2.4420027916356712 14.4239664450357 5.865224465057709 0 0 0
1079 3 2.567499281504562 15.150784391899156 8.94033350825762 0 0 0
343 1 8.67852257547953 16.479571799860796 6.083717538184228 0 0 0
345 1 5.605706226956848 14.91836733690923 8.523968234352871 0 0 0
849 2 5.5092461654092695 18.31105215840531 5.977153615874142 0 -1 0
1139 3 8.6108405250559 15.089581330182387 8.897630532933466 0 0 0
357 1 11.566407437675732 15.446669993280914 8.767383096688128 0 0 0
853 2 12.076368740360103 17.693336589262646 6.146512013624856 0 -1 0
254 1 14.935526292850904 17.975125345988815 9.038818484084883 0 -1 0
355 1 14.916962657661312 14.636988290550947 6.12979824746183 0 0 0
785 2 17.354710733731256 18.212459989840767 5.90361241251584 -1 -1 0
1143 3 14.542228902267583 14.89713519025108 9.144006051993022 0 0 0
165 1 23.165175055599544 15.041192764726398 9.163201571350205 -1 0 0
789 2 23.260721548522966 18.313010470501364 5.68154741092638 -1 -1 0
50 1 20.373287148384584 17.99171425698932 8.942444715360196 -1 -1 0
151 1 19.74314801032317 15.242630305212884 6.0582042690939915 -1 0 0
1075 3 20.20852106669184 14.846737371993687 8.942395022205776 -1 0 0
61 1 3.0996611467134936 21.31045646502512 5.939691421735539 0 -1 0
1045 3 2.4002226121002845 20.939486036373108 8.6663413700842 0 -1 0
241 1 7.794754919783679 21.191795061449866 5.7480500526194955 0 -1 0
1105 3 8.351684017093016 21.167075308953358 8.369332093511645 0 -1 0
255 1 11.409409622674861 20.803100774557212 7.846216977131218 0 -1 0
253 1 15.020036389962854 21.07919874253161 6.059299445852265 0 -1 0
1109 3 14.243358803625103 21.10327262424369 8.858477488832893 0 -1 0
63 1 22.9741139645164 21.190917801090837 7.759787886184555 -1 -1 0
49 1 19.706687304633572 21.09608615277451 5.820019326281826 -1 -1 0
1041 3 20.302207736469416 20.77848313335867 8.629079536384294 -1 -1 0
70 1 2.4733031229989546 3.743204666957081 11.650814376502241 0 0 0
250 1 8.878418393826639 3.029126081357566 11.494573420107102 0 0 0
852 2 5.947025216271064 0.5905753990840656 11.734695477383694 0 0 0
252 1 5.264255720673473 3.3178411948104127 13.802995386274207 0 0 0
856 2 11.300654363825453 0.5114458993707822 11.654804102410106 0 0 0
262 1 13.765276876792072 2.701868103238159 11.569404207926352 0 0 0
57 1 17.343378323719335 2.6061663777512893 9.857881608024542 -1 0 0
60 1 16.963061517867185 3.2132802661272653 13.446578579803743 -1 0 0
792 2 23.20067264633611 0.14028386232595602 11.908800673371466 -1 0 0
58 1 21.169503882302426 3.2529946978708097 11.623865268952997 -1 0 0
160 1 3.8367729364956977 9.040409270262842 11.859991585753095 0 0 0
822 2 0.1468608219400251 6.57109912339966 12.130129229611073 0 0 0
340 1 7.993641948285468 8.91375576715942 11.977079865762242 0 0 0
882 2 5.585683237324017 6.122735565225311 11.512531797162012 0 0 0
351 1 11.277829856044853 8.907946664792874 9.998180389940314 0 0 0
886 2 11.26935725937485 5.881975975932431 11.755044346437835 0 0 0
1141 3 14.151371665889029 9.3777712982792 9.247299111035629 0 0 0
352 1 14.558742244138033 9.234860577548165 11.974431938531707 0 0 0
818 2 17.104047740013964 6.462717675179587 12.256612927012434 -1 0 0
159 1 23.02647204499011 8.868743890404632 9.295202146008066 -1 0 0
164 1 2.679794708414343 12.173428785603125 9.814610077310993 0 0 0
167 1 2.371574287550954 11.950769267845201 13.79617943690071 0 0 0
884 2 5.666350065498975 12.346539179592387 11.64099058594082 0 0 0
888 2 11.395950947435605 12.315782779409409 11.900301074267466 0 0 0
820 2 17.470331596419577 12.331574118089303 11.949354764939804 -1 0 0
148 1 19.640366303009962 9.78894048094363 11.742452385636746 -1 0 0
824 2 22.815019309001364 12.179166298012962 11.599910441147728 -1 0 0
166 1 2.1990056942653964 16.031005244688746 11.456563172441603 0 0 0
242 1 7.879503807219972 18.39669999682139 9.255222147462534 0 -1 0
346 1 8.303133864567474 15.201014472240312 11.821426703860134 0 0 0
850 2 5.107035320223354 17.932213601800953 11.59254779931009 0 -1 0
854 2 11.389919147843768 18.047403605946855 11.387972302430367 0 -1 0
153 1 17.22657936931038 15.192845642259291 9.845293888849088 -1 0 0
358 1 14.115231422433627 14.938488527287808 11.917078102744759 0 0 0
786 2 17.23801475148449 17.93573093397306 11.970584274592811 -1 -1 0
790 2 22.703275583380577 18.136480025382067 12.521318337373529 -1 -1 0
154 1 20.24092981636572 15.229503866567951 11.866785965328969 -1 0 0
64 1 1.645451144054189 20.220471574567313 11.390815910488607 0 -1 0
243 1 5.45460530132238 21.57806353161076 9.335772576112038 0 -1 0
244 1 9.471760425348323 21.108726328343433 11.463992683873249 0 -1 0
256 1 13.789797488434717 20.8895762585503 11.64717769132807 0 -1 0
51 1 17.14558299210724 20.831024007339742 9.25363400226156 -1 -1 0
788 2 17.00632882123789 23.44137901732516 12.510929069800572 -1 -1 0
52 1 20.57413756659765 21.00393948182222 11.728746006924792 -1 -1 0
71 1 2.5418411274973414 0.4374955382384794 13.957840049173736 0 0 0
91 1 2.3188517781611973 2.2493441334812907 17.311226613102832 0 0 0
1048 3 2.2122927053316532 3.1945924872283222 14.459040348229811 0 0 0
251 1 8.354278415900822 0.4354233562747138 14.660850251008755 0 0 0
271 1 7.463583565259364 3.460340488721839 17.140857997060138 0 0 0
859 2 5.105495060867198 0.4952165686463095 16.285409947550264 0 0 0
1108 3 8.38147634857172 3.270968989501621 14.42925411626343 0 0 0
264 1 11.189668797933605 3.2232825110298746 14.710704877762831 0 0 0
863 2 11.239076659248736 0.11630554040639805 17.2298775217008 0 0 0
263 1 13.426760218898183 0.2955184732330666 14.725624453298671 0 0 0
283 1 15.187713065864134 2.8335660800603195 17.077415007072613 0 0 0
1112 3 14.236224657035018 3.2603391806054027 14.334933725936796 0 0 0
72 1 22.88353072062168 3.275668800682575 15.268715496576256 -1 0 0
799 2 22.495933034813707 0.4622861701607161 17.37690364575461 -1 0 0
59 1 20.075473662813092 0.5328896659241051 14.815037185503956 -1 0 0
79 1 19.6302977866972 3.441847776097204 17.31415402400943 -1 0 0
1044 3 20.162231329862095 3.325699527109885 14.325946074476557 -1 0 0
161 1 2.48705968523594 6.130537494213026 14.850033363549443 0 0 0
1078 3 2.435431926138014 9.207946294603914 14.788098405837077 0 0 0
341 1 8.156227906437016 6.253099278861777 14.716002912514277 0 0 0
342 1 5.376900571935036 9.19956944653774 15.160271020115257 0 0 0
889 2 5.669896023234484 6.168620873475102 17.561974614510753 0 0 0
1138 3 8.219211346939492 9.27781151654678 14.778942283657535 0 0 0
354 1 11.446933353894085 9.26699136534938 14.473483676820589 0 0 0
893 2 11.045871041107137 6.205036882675554 17.184590411137297 0 0 0
353 1 13.715914190238168 6.144539003334836 14.292693671630822 0 0 0
373 1 13.19265458293354 9.307931102137553 17.452474587322047 0 0 0
150 1 17.324931247266505 8.79214079125267 15.076051575498548 -1 0 0
825 2 16.756618812718827 6.289039941997176 17.64852566635734 -1 0 0
1142 3 14.2539675136481 9.30241492403461 14.852241154042595 0 0 0
162 1 22.983356120169 9.367316573728415 14.314625435909662 -1 0 0
829 2 22.850153632541552 6.77699245235544 16.92160093055468 -1 0 0
149 1 20.334458062427345 6.187569184994461 14.122690523579625 -1 0 0
1074 3 20.033126134412118 9.282281893134957 14.808022622263474 -1 0 0
181 1 1.678125079542243 10.105617601825921 17.152689891814926 0 0 0
361 1 8.459973177236956 9.570146190776063 17.780900064315762 0 0 0
347 1 8.031260810258246 12.108010862528808 14.442839669771564 0 0 0
891 2 5.15149753043394 12.001502015494292 17.918814486166387 0 0 0
895 2 10.901732855236512 11.94188676643927 17.09125667598222 0 0 0
359 1 14.965706768507605 12.078078435935046 14.8588423378515 0 0 0
827 2 17.33390904821349 12.90015415045062 17.380824390360537 -1 0 0
169 1 20.48772180065221 9.582356944690025 17.5220675225916 -1 0 0
831 2 22.507798254238622 12.258165694099267 17.60947546458975 -1 0 0
155 1 20.186609434544962 12.208317518984455 14.703088003548748 -1 0 0
65 1 2.6587810679432846 17.78755228539579 14.801670561731632 0 -1 0
187 1 2.744662336574124 14.361090952876665 17.005390372621278 0 0 0
1080 3 2.628358178861447 14.897389068484856 14.157842706354172 0 0 0
245 1 8.35681249545676 17.82265308368559 14.490064027584612 0 -1 0
348 1 5.488846051423966 14.581017157744224 14.45147757511862 0 0 0
367 1 8.030189668426672 14.85178202165769 17.66953919793905 0 0 0
857 2 5.274876029686874 17.314271819841036 17.60045982901919 0 -1 0
1140 3 8.422238643898952 15.019673230072035 14.868700054936212 0 0 0
360 1 11.497097000978417 14.739962389652861 14.901045584133616 0 0 0
861 2 10.7689386928095 17.395486669139107 17.5253434510743 0 -1 0
379 1 13.923777360456697 15.73464782742065 17.413805090250996 0 0 0
156 1 17.417822033830817 15.313460937157732 14.536620090527117 -1 0 0
257 1 14.1012318004819 17.843100669754655 13.956191015063439 0 -1 0
793 2 17.621338167788835 18.16086950996219 17.823244298517416 -1 -1 0
1144 3 14.426073165825496 15.009915309112449 14.78120399604523 0 0 0
168 1 23.143033768223752 14.863672238750096 14.95044249093894 -1 0 0
797 2 22.871436439440807 18.170711354608635 17.03628973034071 -1 -1 0
53 1 20.02382011457532 18.146127962489224 14.588161853096059 -1 -1 0
175 1 19.881247658305895 15.274804848059341 17.66267195375212 -1 0 0
1076 3 20.289395253294778 15.214853368043224 14.68846826410529 -1 0 0
85 1 3.4252596878246386 21.11465472748446 17.135289888680568 0 -1 0
1046 3 2.417973721233289 20.72426898057012 14.382676956164085 0 -1 0
246 1 5.236449238847941 20.69894370913476 13.89527892875188 0 -1 0
265 1 7.956021794967479 20.682535480638006 17.380286645349436 0 -1 0
1106 3 8.346504510721047 20.87163647656228 14.491753751832984 0 -1 0
258 1 10.992404761867435 20.466063649894092 14.864008175098611 0 -1 0
1110 3 14.05776724813512 20.805499967144293 14.613138179604817 0 -1 0
795 2 17.314108137179332 23.02426557058014 17.59497916323237 -1 -1 0
54 1 16.982405089756206 20.54172087672296 14.731820327821552 -1 -1 0
277 1 14.29361313035997 19.743069718447423 17.406594359202806 0 -1 0
66 1 23.08273237118892 21.364891101999053 14.822590326780684 -1 -1 0
73 1 20.137249981373117 20.63139854280403 17.680900340836786 -1 -1 0
1042 3 20.04232691819575 21.16917813825319 14.420400562898903 -1 -1 0
92 1 2.8641678500841934 0.5342500442535574 20.522218934770603 0 0 0
1055 3 2.333316718522382 3.5956868097866286 19.964539762326883 0 0 0
94 1 2.1679228379111257 4.136379919115027 22.905738087182304 0 0 0
272 1 7.958844535033861 0.2710616655613173 19.786747887299857 0 0 0
273 1 5.515301442963274 3.4544407058159052 20.469349447710364 0 0 0
1115 3 8.329682896939424 3.301631498041353 20.216526001546857 0 0 0
274 1 9.378462703381576 3.1217640979051335 22.82507724629374 0 0 0
860 2 5.892315979414089 0.19169421016261465 22.41807598280515 0 0 0
285 1 11.258975542606356 3.047745862819301 19.46578087429854 0 0 0
864 2 11.698745360170065 0.8114854040667594 22.7572676794899 0 0 0
81 1 17.018191181531172 3.431170400918009 20.46534671526887 -1 0 0
284 1 14.236872643601334 0.05702986756059279 19.47548127746718 0 0 0
1119 3 14.200925777607116 3.180500056748735 20.064089327639774 0 0 0
286 1 14.132807035749304 2.9514219507697543 22.929013975346113 0 0 0
796 2 16.82153040092173 0.5620598693662799 23.00093963170918 -1 0 0
93 1 22.937833784212405 3.5446026973083247 19.295595480376658 -1 0 0
80 1 19.623164006936836 0.3810601839826895 20.310598649855166 -1 0 0
1051 3 19.799861312750753 3.320150542014501 20.156297236122665 -1 0 0
800 2 22.95625808484797 0.5840452155984975 22.4827401039907 -1 0 0
82 1 20.209313022386134 3.6888462654478347 22.885966691241055 -1 0 0
182 1 2.3153929434468763 6.2382647925024175 18.915827713269554 0 0 0
1085 3 2.1267863750380713 9.243137387176555 19.889860649814842 0 0 0
184 1 1.9251159979448493 8.701810955135935 22.635526881501526 0 0 0
362 1 8.883099213432688 6.268483545761984 19.95197672595723 0 0 0
363 1 5.143650379450109 9.076260422504362 19.993068792070414 0 0 0
1145 3 8.030945804654078 8.895242296599644 20.644542597283625 0 0 0
890 2 4.904700179647618 6.466098114798685 22.17118059107255 0 0 0
375 1 10.947769048244886 9.302531945324551 20.578714390338344 0 0 0
374 1 13.75949161325273 6.106865664293651 20.172598263221907 0 0 0
894 2 11.282171976072137 6.11401678527951 22.67836440787212 0 0 0
171 1 16.70029576720149 9.344820102999227 19.47340510566541 -1 0 0
826 2 17.030611163241176 6.432519492420874 22.092225937005267 -1 0 0
183 1 22.77650895838068 9.226611589797146 20.410881755200517 -1 0 0
170 1 19.676961828013535 6.2598296204842185 19.928148197458743 -1 0 0
1081 3 19.71331339716887 9.289314740192415 20.350914884329324 -1 0 0
830 2 22.691035866766978 6.072936322038856 22.37723789769072 -1 0 0
172 1 19.93769832947088 8.796348752927306 22.966546284707576 -1 0 0
188 1 2.2865457055612093 11.902829347415526 20.44280419766873 0 0 0
368 1 7.920146748022973 12.014216367276024 20.052369325654926 0 0 0
1149 3 13.879564378426219 9.475826499214119 20.354828839953438 0 0 0
896 2 10.72375720954771 12.345640370161165 22.430207519859675 0 0 0
380 1 14.269432096910567 12.102513112360139 19.392274977056353 0 0 0
828 2 16.779510342424697 11.96567154661274 22.49461919923524 -1 0 0
176 1 20.191878555367637 12.130004036868351 20.290681606775316 -1 0 0
832 2 22.66405832200032 12.005728180763311 22.904853016414325 -1 0 0
86 1 1.949747173673474 17.84192354873665 19.59594487916025 0 -1 0
1087 3 2.438915546245842 14.986936362059627 19.9299121695388 0 0 0
190 1 2.72425951249654 15.39023486370114 22.699739254151094 0 0 0
266 1 8.448466812392217 17.64369625194691 20.277632039090673 0 -1 0
369 1 5.443438618317323 15.212227504969533 20.289685712259427 0 0 0
1147 3 8.372376236330211 14.681886272807628 20.525110164343353 0 0 0
381 1 11.075424784128987 14.470639789653662 19.416795213911588 0 0 0
278 1 13.634595977127628 17.745861471384792 21.071309182614247 0 -1 0
1151 3 14.046712686982204 14.89405589783193 20.059001122134642 0 0 0
177 1 16.958266302261286 14.895191973805288 20.39064912877023 -1 0 0
794 2 16.7457786311668 17.873595616011457 22.99167813645198 -1 -1 0
189 1 23.025866615570852 14.82801482881582 20.10158678674821 -1 0 0
74 1 20.24068243885419 18.076094725905524 20.186453641836348 -1 -1 0
1083 3 19.979196906858647 15.207867188702593 20.47777362195145 -1 0 0
798 2 22.941864565791484 17.36725655740416 22.503477128393634 -1 -1 0
1053 3 2.669329359226396 20.982682534396638 19.89988763527699 0 -1 0
88 1 2.461019582220145 19.373024484566532 22.391044583661117 0 -1 0
267 1 5.5978660149811805 19.894356817641796 20.29186935893242 0 -1 0
1113 3 8.598849886328837 20.724842843951517 20.436543364212106 0 -1 0
279 1 11.418473502947041 20.61605725309224 19.290003238197997 0 -1 0
280 1 14.00122403017879 20.569837424177322 23.02500071262586 0 -1 0
75 1 17.39226544449562 20.70811376266981 20.460199962672448 -1 -1 0
1117 3 14.14275096033092 20.55658985446839 20.23814143679363 0 -1 0
87 1 23.238330871467916 21.30392296360066 20.012517487454396 -1 -1 0
1049 3 20.49048302944598 20.897672941008384 20.542943418387267 -1 -1 0
95 1 2.8795856884775075 0.29098793391856825 24.076973869270294 0 0 0
1056 3 3.0613706141670978 3.1390416949738915 25.363525590284077 0 0 0
275 1 8.430377368910532 0.8885193034939474 24.865930871143874 0 0 0
276 1 5.918156990672413 3.583163976629931 25.068509729629067 0 0 0
1116 3 8.74251762092231 3.817687231802424 25.576396293865134 0 0 0
288 1 11.900500179723755 3.627282940703 25.97660127414518 0 0 0
84 1 17.425984943195612 3.2752617020384593 25.27084429305132 -1 0 0
287 1 14.357277118258397 0.16595466812105492 26.184104537947622 0 0 0
1120 3 14.853340543076973 3.560147558822507 26.499881799254123 0 0 0
96 1 23.42924944414631 2.793122897076515 25.65625254550726 -1 0 0
1052 3 20.531029834010926 3.1756947593107423 25.76482565779304 -1 0 0
185 1 2.7999083222006673 6.1642904389683455 25.602823145628843 0 0 0
1086 3 1.8230244640647786 8.99271879896976 25.724136208559244 0 0 0
364 1 7.8675288230814004 7.158920020231431 23.167725836642244 0 0 0
365 1 8.188565910621776 6.610857583391461 27.596603135747902 0 0 0
366 1 4.779337256888138 9.343950033088879 25.912799975487598 0 0 0
1146 3 8.185352722639495 9.090017750887469 25.35441292705624 0 0 0
378 1 11.011794478065482 9.045126720290673 25.413396548153464 0 0 0
377 1 14.376178330200755 6.30410259474482 24.334282213471614 0 0 0
1150 3 14.787536382532277 8.462457358877987 26.209336972549103 0 0 0
186 1 22.577839562657758 8.415997722117961 25.190626101671196 -1 0 0
173 1 19.698880424874837 5.867711566868988 25.476060636131283 -1 0 0
1082 3 19.683948149893016 8.58081626765269 26.069378751910246 -1 0 0
191 1 1.9582071202057934 11.668782476743347 24.67568479621744 0 0 0
371 1 7.9191037497745524 11.480590630398153 23.708350786339423 0 0 0
892 2 4.740878097872569 10.765280759919618 23.210162395991293 0 0 0
376 1 13.977528104375818 9.988091024266856 23.192292969624233 0 0 0
1249 3 12.018682369726763 11.289476104023919 27.249580190913125 0 0 0
174 1 17.057181941304194 9.766469275264654 24.525764465071937 -1 0 0
383 1 14.837452929272967 11.729281208380698 26.89406415567111 0 0 0
1187 3 17.854162351615734 11.625392559921336 27.215620037988476 -1 0 0
179 1 19.53720886706862 12.071442487295053 25.3403522863334 -1 0 0
89 1 2.857021443895547 17.52481122949463 25.785367421226287 0 -1 0
1088 3 2.5867102747445423 14.742103392714068 25.43502227906948 0 0 0
269 1 8.515837162404043 18.217846563424317 25.95142732777799 0 -1 0
370 1 8.565488731135574 15.377362597471935 23.502079854638463 0 0 0
372 1 5.374630854682384 14.210134604590717 25.076927522240087 0 0 0
858 2 5.62935988376472 17.775797434417044 23.452185870239667 0 -1 0
1148 3 8.044703443198479 15.035419848568141 26.5870504687167 0 0 0
384 1 10.75098172872892 14.111511278899403 26.388175413165 0 0 0
862 2 11.016688658365048 18.124588533106177 23.59298371479601 0 -1 0
281 1 13.996124593362392 17.368275665891137 26.98544295834698 0 -1 0
382 1 13.255664746301312 14.901894365398428 23.388335183479473 0 0 0
180 1 16.768373608226234 14.818034648915186 24.65279854979637 -1 0 0
1152 3 14.237706660157903 14.533787121236774 26.051881234583632 0 0 0
77 1 18.23368238096367 18.054305536809792 26.28096052797881 -1 -1 0
192 1 23.03827269136384 14.798708410777843 25.04373083383024 -1 0 0
178 1 19.893309993372792 15.75222194068344 23.22352957995945 -1 0 0
1084 3 20.470941306697064 15.859295919297608 26.26788484366941 -1 0 0
399 1 22.080183338231947 18.136401682654792 26.48323838256948 -1 -1 0
1054 3 2.6122690990625133 21.012281588426244 24.6179330022039 0 -1 0
398 1 1.9044413850049522 20.58205029146754 27.593920850947764 0 -1 0
268 1 8.888866879024325 20.38865136414953 23.166098578514518 0 -1 0
270 1 5.679550963457303 21.24099856798257 25.08399547197987 0 -1 0
1114 3 8.396091475636009 21.51003839791134 25.82848016834135 0 -1 0
1219 3 5.965858860620052 23.4509321176972 27.650576418842164 0 -1 0
282 1 11.458406199847103 21.183803377152923 26.147421081251828 0 -1 0
78 1 16.961043819043198 21.323675981282104 24.9154123467892 -1 -1 0
1118 3 14.549696707741806 20.77495045131185 26.108552320280463 0 -1 0
83 1 19.85635122834368 23.474326602284147 24.66982638244215 -1 -1 0
90 1 23.199435041697683 21.069861379013265 24.514302857035915 -1 -1 0
76 1 20.188422229795634 19.499561508301337 23.15139889401712 -1 -1 0
1050 3 19.645800075039382 20.754109066094145 25.736892018110407 -1 -1 0
1153 3 22.529488453764 21.182120107916006 27.41877263383688 -1 -1 0
403 1 2.556410297380013 4.441499890643569 31.461517702061574 0 0 0
386 1 3.692684688138113 1.6293517738717305 28.085420777633846 0 0 0
600 1 8.115429341218682 2.410795794412224 27.975249709411514 0 0 0
393 1 6.7458440454975825 2.3550811564083944 31.35907502452153 0 0 0
595 1 11.35711094463965 2.715735130919757 30.351275003636697 0 0 0
1223 3 13.540392491239137 2.2485015852369865 31.800834178177492 0 0 0
583 1 15.560888692407822 2.1166943296767107 29.667740458180802 0 0 0
1155 3 17.67789251092942 0.6732902329406937 30.40328285992337 -1 0 0
585 1 18.724819725837314 2.7893602103570228 32.14861531809074 0 0 0
408 1 20.371491540066685 3.583908694204116 28.73003586047393 -1 0 0
404 1 23.368619794924484 0.44905157477248414 28.113119286469566 -1 0 0
388 1 21.47343719504365 0.24267630466712312 31.592522265373532 -1 0 0
933 2 0.24595869419636987 4.860390040844968 28.321008045649343 0 0 0
494 1 3.870273602322784 8.154112417948191 30.163802605303577 0 0 0
1189 3 1.5910790990958188 9.176132452362431 31.18171457999277 0 0 0
898 2 4.759253065228488 5.109305611712312 28.45108467038916 0 0 0
998 2 8.464409660046362 5.251685577298865 30.618701255656923 0 0 0
687 1 9.603544581468169 8.87982021351074 30.85354325816734 0 0 0
997 2 11.608701234688827 5.968171891516462 28.43031061863948 0 0 0
692 1 12.959132408712977 8.891004527664343 28.71357652002258 0 0 0
597 1 13.934463460690235 5.186551674485982 31.602739313864006 0 0 0
578 1 15.153089689689589 6.005016656061596 28.122908513050294 0 0 0
962 2 17.948377319275025 5.602012188297062 29.92593454592224 0 0 0
679 1 16.895091781378007 9.05238264340402 28.194297303833995 0 0 0
686 1 16.272307592471872 8.016022256809888 31.79106309907226 0 0 0
495 1 23.140777840731698 6.704818064336149 31.577148626113686 -1 0 0
493 1 20.380116612198695 7.347443427290147 28.830346347029522 -1 0 0
1185 3 20.066468654202005 9.184995957000993 31.1003764145951 -1 0 0
487 1 2.479158329493181 12.02852166774124 31.890553992278534 0 0 0
500 1 1.1230206483297014 9.47352261187027 28.56636855807483 0 0 0
482 1 2.373587891093571 13.570088682369294 28.473489292351463 0 0 0