LAMMPS data file via write_data, version 29 Aug 2024, timestep = 1000, units = metal

1280 atoms
3 atom types

0 23.496 xlo xhi
0 23.496 ylo yhi
0 97 zlo zhi
0 0 0 xy xz yz

Masses

1 79.904
2 132.904999
3 207.199997

Atoms # atomic

47 1 3.047475588501485 0.7033107521624656 2.1052697286944104 0 0 0
1040 3 2.8048354641671054 3.4499243462899765 3.053539014348334 0 0 0
226 1 8.627306162430287 3.274534876543368 0.06276661064205893 0 0 0
227 1 8.80967615949138 0.5174867163499829 2.8230369557774706 0 0 0
228 1 5.670354435835967 3.4457633951768307 2.851304048851849 0 0 0
844 2 6.284962852892279 0.5891473873480646 0.29976787936396676 0 0 0
1100 3 8.806788812805426 3.614397551158506 3.030875960144297 0 0 0
240 1 11.870094094871689 3.689847972942909 3.2805638674119284 0 0 0
848 2 11.745396278350874 0.9860352660945705 0.4364147944877013 0 0 0
36 1 17.408390239536715 4.058899655679812 3.0224446568206447 -1 0 0
238 1 14.632486688947058 2.9959853149083697 0.2526549386853621 0 0 0
239 1 14.717667787756264 0.5556502992506768 3.4111343002809598 0 0 0
780 2 17.133106229930412 0.056606926559171024 0.48537190266688124 -1 0 0
1104 3 14.696576311425218 3.41005327700894 3.266833292980717 0 0 0
48 1 23.438378780801745 3.0446462543133626 3.0544684785053766 -1 0 0
34 1 20.329706910583543 2.765411984244063 0.12220855293042523 -1 0 0
35 1 19.699193396211466 0.8827513015227407 3.0608713160331202 -1 0 0
1036 3 20.47166635319931 3.778040714416685 3.1020295374634745 -1 0 0
136 1 2.304347744010911 8.911618039236934 0.43810409817178814 0 0 0
137 1 2.463625241281009 6.471873038975073 3.3315058357043714 0 0 0
317 1 8.677706870352967 6.702479825746382 3.411887498576463 0 0 0
874 2 5.694936750834243 6.265010190393272 0.1836339754758938 0 0 0
316 1 9.908205992604927 9.132006116949018 0.397282255102042 0 0 0
878 2 11.437456361690604 6.250206655215285 0.2396239435012172 0 0 0
328 1 13.936711698024467 9.216860879389582 0.26170601941722726 0 0 0
329 1 14.055349228146127 6.479861859188961 3.0509337987002256 0 0 0
810 2 17.60935898356626 6.634032213931383 0.466186538753894 -1 0 0
814 2 23.427275861159586 6.136157695340657 0.2568993948349687 -1 0 0
124 1 21.22974057861046 8.91372893355424 0.3984729345387833 -1 0 0
125 1 20.943028762765103 6.615273718833856 3.1114064740955167 -1 0 0
1070 3 2.7532926701329252 9.42959091704534 3.150110237262856 0 0 0
143 1 2.824323034361946 12.600379252468572 2.843441955903044 0 0 0
816 2 0.2158921230675556 12.362967663367138 0.8491898876284217 0 0 0
318 1 5.894861464203349 9.514589436787842 2.85876012095711 0 0 0
1130 3 8.683807830562538 9.543738830684637 3.207046429375526 0 0 0
323 1 8.284241543614852 12.436543415258642 4.043669463426569 0 0 0
876 2 5.576789142333655 12.364695936744447 0.20567800714736326 0 0 0
330 1 11.63778278356853 9.558708827995385 3.8714356781177344 0 0 0
880 2 11.659735430568274 12.293104888361333 0.6899629468633554 0 0 0
126 1 17.497060224101126 9.794216228552903 2.164771762858812 -1 0 0
1134 3 14.559673845197517 9.406785894282445 3.0507785214505896 0 0 0
335 1 14.320498494384008 12.597972352049874 3.9535052108765045 0 0 0
138 1 23.286278227262983 9.864849445900786 3.608524224037741 -1 0 0
1066 3 20.266400073949224 9.504019565552705 2.980041780809525 -1 0 0
131 1 20.248861921015802 12.23793766376139 3.2232698895652168 -1 0 0
41 1 2.5979414244264625 18.421817393497392 3.329514376672463 0 -1 0
142 1 2.601847339592367 15.517758593625995 0.36972526185265225 0 0 0
1072 3 2.6549238520912377 15.348586311461325 3.2672470963988447 0 0 0
221 1 8.684213874672658 18.188763305876005 2.8141798071074304 0 -1 0
322 1 8.553102102465818 14.26054054817137 0.4487799255603996 0 0 0
324 1 5.739564125338567 15.423784417854597 2.8696030786955085 0 0 0
842 2 5.395670463466694 17.818134483038545 0.21191987160900613 0 -1 0
1132 3 8.521159095346588 15.152821718125658 3.2411135153869255 0 0 0
336 1 11.643815369560782 15.553252194317325 3.224530962710686 0 0 0
846 2 11.838535201824394 18.402837194291994 0.6617135843735151 0 -1 0
132 1 17.52592622831598 15.514550737450653 3.037568187931494 -1 0 0
233 1 14.447096702851677 18.29345934585275 3.579489135604772 0 -1 0
334 1 15.13778309990274 14.409796981345073 0.5093287916216027 0 0 0
778 2 17.73750087049191 17.95823183660989 0.5332069104421385 -1 -1 0
1136 3 14.481067425649691 15.24715003918664 3.221422853251078 0 0 0
144 1 23.407084285593324 15.503237735121779 3.1076655501895627 -1 0 0
782 2 23.287503700773005 18.35560332887628 0.39951380780632423 -1 -1 0
29 1 20.218114809919776 18.139715181916365 3.616642281331488 -1 -1 0
130 1 20.536513833653565 15.368283908268747 0.4594297762785798 -1 0 0
1068 3 20.33878276461487 15.180566526229763 3.3878823432712646 -1 0 0
40 1 2.3091231783685395 20.95626131425252 0.15723116605075618 0 -1 0
1038 3 2.9853096425920485 21.38777311578068 2.999003116499745 0 -1 0
222 1 5.807343020763824 20.7523626705275 2.510633827570842 0 -1 0
1098 3 8.630605117707987 20.909725874299756 3.200424067343132 0 -1 0
220 1 9.946979462562968 21.320449384604377 0.5892397486638741 0 -1 0
234 1 11.912143385168287 21.116493036787958 3.91926363901558 0 -1 0
30 1 17.41426917387861 20.695506982530897 2.460818187527128 -1 -1 0
232 1 14.251545431557785 21.49486404605275 0.22692098847388067 0 -1 0
1102 3 14.578922241483514 21.110035285585628 3.2267852566373696 0 -1 0
42 1 23.345659611756133 21.518717384168426 3.507590143386413 -1 -1 0
28 1 20.752134773442457 21.005652429601756 0.16090691868801865 -1 -1 0
1034 3 20.305280660676413 21.433896279892494 3.038531966875214 -1 -1 0
67 1 2.5998298414783623 2.943915147043248 5.827417221223085 0 0 0
791 2 0.0877743231012811 0.637351386632975 5.981928203229649 0 0 0
1047 3 2.7091860384564996 3.344621261029198 8.87502397308319 0 0 0
247 1 8.29907643602038 3.0303701562680665 5.879768701912835 0 0 0
248 1 8.465299396918201 0.6719116117783029 8.809056082382464 0 0 0
249 1 5.549389907623428 3.186908713139612 8.751979749533906 0 0 0
851 2 5.473484478548954 0.7436633858490721 5.627946310833692 0 0 0
1107 3 8.591022937816884 3.477555819461407 8.747847509386947 0 0 0
261 1 11.34615564631042 3.5004312489841 8.041399823750758 0 0 0
855 2 11.66857556856749 0.6607373928482541 5.63931254029953 0 0 0
260 1 14.06301832540812 0.224034853938935 8.229897969577069 0 0 0
1111 3 14.097234723032278 3.0370309513224507 8.840116477122931 0 0 0
259 1 15.195043197933913 3.6828037516287 6.088483262839595 0 0 0
787 2 17.227805747986437 0.6898462532021731 6.309845663982111 -1 0 0
69 1 23.0292594155485 3.254949721512651 8.709835581957908 -1 0 0
55 1 19.95650183248648 4.0264274859467415 5.86981611477989 -1 0 0
56 1 20.084258232127517 0.46647093132299444 8.975239257374936 -1 0 0
1043 3 20.179530120779383 3.420197922032357 8.692098394347134 -1 0 0
158 1 3.121089244927276 6.289883097165435 8.408542114200095 0 0 0
1077 3 2.608130298018829 9.230216206555525 8.874038730444864 0 0 0
337 1 8.378651519657025 9.151026557165357 5.999588309212717 0 0 0
338 1 8.408156272939491 6.394820960998109 8.469533829632294 0 0 0
881 2 5.66043393023791 6.236979961308354 5.985483593603324 0 0 0
885 2 11.762606715873316 6.552049369311383 5.887465721313242 0 0 0
147 1 17.188938900877538 9.226449316056716 9.008387049390386 -1 0 0
349 1 14.680671296285873 9.019234525002478 6.005528048269293 0 0 0
350 1 14.312569881572687 5.995007563550508 8.91811453953997 0 0 0
817 2 17.151604996737333 6.719389155846234 5.772629746543066 -1 0 0
1141 3 14.221210225276327 9.110069836336102 8.917741325400494 0 0 0
159 1 23.176683281718475 9.309351861327341 9.023980705234656 -1 0 0
821 2 23.159165774660476 6.069977057277933 6.151529757000392 -1 0 0
146 1 20.143250316355513 6.565721455211626 8.859436455902244 -1 0 0
1073 3 20.04487594391607 9.350712050824118 9.081974164105077 -1 0 0
157 1 2.8458556844756555 9.907718228871774 5.945581169670637 0 0 0
339 1 5.508520783683295 9.476335657585436 8.956192241892019 0 0 0
1137 3 8.61747262349715 9.458262866584663 8.755018897556472 0 0 0
344 1 8.274707844921695 12.149551390349043 8.353891134158397 0 0 0
883 2 5.642879628645662 12.038757115907181 6.189391911262163 0 0 0
887 2 11.181255091611908 11.977248506277961 6.224736922123242 0 0 0
356 1 13.635609506813378 12.01077363558204 8.795825387440466 0 0 0
819 2 17.03532122543262 12.483203456443569 6.2923024918232064 -1 0 0
145 1 19.712647537260334 9.452650380272262 6.158277345442711 -1 0 0
823 2 23.105002885228316 12.18520952365285 6.278378855158928 -1 0 0
152 1 20.708027917235952 12.1049787536485 9.01258108344309 -1 0 0
62 1 2.2327075059576877 17.958393653654213 8.297160673825083 0 -1 0
163 1 2.708880209751923 14.521338899887878 6.080881716068835 0 0 0
1079 3 2.6606062967973405 15.178241661396823 9.063026116736767 0 0 0
242 1 8.325460710040119 18.0378284578154 9.201923116883316 0 -1 0
343 1 8.45178185483067 16.420251474170033 6.083349971034537 0 0 0
345 1 5.493051965059448 15.01490496324989 8.693932568176512 0 0 0
849 2 5.107542653931964 17.850988044823048 5.6003265753234315 0 -1 0
1139 3 8.547845443951068 15.080836606463505 8.69484743282058 0 0 0
357 1 11.543942989120222 15.0001045428216 8.813152457555612 0 0 0
853 2 11.92510211489808 17.7187369154108 6.051030909804389 0 -1 0
355 1 15.073915077328962 15.494043222003759 6.099890537521517 0 0 0
785 2 17.816381467359072 17.927359074609704 6.25910324978427 -1 -1 0
1143 3 14.682106898891888 15.011749033587817 8.918444120342292 0 0 0
165 1 23.04694901666225 15.099729167659426 8.853542358561036 -1 0 0
789 2 23.134075108059605 17.867675193281322 5.713951760122081 -1 -1 0
50 1 20.160356689810985 17.868971395358557 8.701012270529565 -1 -1 0
151 1 19.974376516569816 14.750775955234758 6.094498403970006 -1 0 0
1075 3 20.260073609605957 14.876890706880864 9.125018012757891 -1 0 0
61 1 3.080624243621193 21.969811852954084 5.90962954893749 0 -1 0
1045 3 2.500395989937127 20.964345098410774 8.567316956298685 0 -1 0
241 1 7.39404761907812 21.109740541359827 5.803896179310767 0 -1 0
1105 3 8.39326430487729 21.139916781408385 8.487982402687424 0 -1 0
255 1 11.299937652297007 21.492606943996602 7.819607989787337 0 -1 0
51 1 17.23618224229795 20.802084925592922 9.236584409544498 -1 -1 0
253 1 15.389028819627189 21.22297201626946 5.990336809835227 0 -1 0
1109 3 14.179666422717755 20.903814806269107 8.515394400823116 0 -1 0
63 1 23.192206006714226 21.248994493260867 7.866829944710543 -1 -1 0
49 1 19.569990666203942 21.316381036730085 5.917271207764329 -1 -1 0
1041 3 20.313309853400717 21.024544659189182 8.58795636644864 -1 -1 0
68 1 2.4960673495201333 0.41213163288890486 9.642723144462403 0 0 0
70 1 2.817427746358321 4.185958021369493 11.711165754683062 0 0 0
71 1 2.320396821700148 0.23304808196769217 13.536607760778354 0 0 0
250 1 8.757637880088868 3.5976329160619405 11.66486193711864 0 0 0
852 2 5.739224457494891 0.3247465105470179 11.587207100531057 0 0 0
856 2 11.00532955937179 1.0213894696739014 11.640204896307905 0 0 0
262 1 13.779798990615065 3.739766566610538 11.716312633083781 0 0 0
57 1 17.02506487826266 3.2112540606410027 9.574823581800251 -1 0 0
792 2 23.07449266960777 0.6312015740142548 11.44804669622538 -1 0 0
58 1 20.747729185988792 3.5303395682797682 11.45448100464448 -1 0 0
160 1 2.5903088243914647 8.31783525698997 11.550005843608519 0 0 0
882 2 5.779651833928675 6.583069118409336 11.328395275474039 0 0 0
351 1 11.410355191151488 8.836640818722602 9.420842291722371 0 0 0
886 2 11.48848684119763 6.336258583291812 11.929593299949788 0 0 0
352 1 14.143020965691196 9.08524009243037 11.69720347254488 0 0 0
818 2 16.939248496200083 6.494325030611659 11.615997391347715 -1 0 0
822 2 22.775065935052243 6.7550546382049825 11.702949109236934 -1 0 0
164 1 2.439331838291917 12.11400316009962 9.474237984255751 0 0 0
340 1 8.410369625000524 9.999215265398043 11.863272528425922 0 0 0
884 2 5.712971118051347 12.33081448879979 11.644234708447334 0 0 0
888 2 11.681455594695052 11.90267014759211 12.290622018405564 0 0 0
820 2 16.94657335745337 11.949816781178658 11.757939082641167 -1 0 0
148 1 19.998382332139514 9.647576472631732 12.064770485658796 -1 0 0
824 2 23.068462844024648 11.657273702130853 11.909113198715282 -1 0 0
166 1 2.6444453515554107 15.955466217323847 11.685916243291066 0 0 0
346 1 8.680268192152704 14.403303439561709 11.580983323193973 0 0 0
850 2 5.5602670780651815 18.248861571135258 11.869334465050034 0 -1 0
854 2 11.554252486486618 17.442778460967748 11.61611630168276 0 -1 0
358 1 13.852679703690107 14.671617624581392 11.871170478727295 0 0 0
153 1 17.32313193490842 14.708597350104444 9.678116590618528 -1 0 0
254 1 14.17093659280945 17.888012846772213 9.2779841352896 0 -1 0
786 2 17.56034471486341 18.477494493538213 11.886428255868417 -1 -1 0
156 1 17.498363696022356 15.059951647965386 13.796675362711241 -1 0 0
790 2 22.764738981363408 17.97180137857987 12.074136830292991 -1 -1 0
154 1 20.790146489300323 15.16665026226939 12.005488290598601 -1 0 0
64 1 1.9535886577194739 19.889809523140514 11.452037529724716 0 -1 0
243 1 5.296861251414543 20.877632787393985 9.424836684911826 0 -1 0
244 1 8.689225782021696 21.29710952626581 11.401136220273305 0 -1 0
256 1 13.84458044880781 21.50626957441489 11.226531141739294 0 -1 0
788 2 17.305902406939573 23.23608287788004 11.668031783258048 -1 -1 0
52 1 20.243519438026283 20.782149209525745 11.53514931723643 -1 -1 0
91 1 2.174715087276827 2.388011381927439 16.979841511563734 0 0 0
1048 3 2.5181286246847505 3.129270878628584 14.397642157578442 0 0 0
251 1 8.12451119855102 0.024078324369886103 14.668936723257708 0 0 0
252 1 5.3431494347887325 2.9652274796131177 14.144950542194902 0 0 0
271 1 8.349435212550947 2.892732497952147 17.50914253234629 0 0 0
859 2 4.936102981008521 0.2289967656003552 16.90626548155978 0 0 0
1108 3 8.22797603541591 3.097029555020804 14.46939294120002 0 0 0
264 1 11.349905414086434 3.617346763290423 14.653385250714374 0 0 0
263 1 14.000999770294902 0.2377805730667673 15.017424485291462 0 0 0
60 1 17.202007588280658 3.0286043903930926 14.127900080073832 -1 0 0
283 1 14.506285679717607 3.398184071421089 17.32139147808803 0 0 0
795 2 17.495713792049187 0.09961117966998766 17.093089127679875 -1 0 0
1112 3 14.35016804294567 3.073805610652343 14.696712588564463 0 0 0
72 1 23.00971743252359 3.5387501258847323 14.454338134285221 -1 0 0
799 2 22.303388594207227 0.35027129256190137 17.262306737863277 -1 0 0
59 1 20.437556263853267 0.561064348184344 14.36991150045486 -1 0 0
79 1 19.67937079012621 3.383336771731978 17.232522954096776 -1 0 0
1044 3 20.040625381861943 3.4631792887012223 14.210863504942305 -1 0 0
161 1 2.6638082745966303 6.245918340605126 15.276713306972642 0 0 0
181 1 2.636485874280704 9.268965224946932 17.439436761892622 0 0 0
1078 3 2.3854978863963656 9.033839487747287 14.490537856358136 0 0 0
341 1 7.924615708165523 6.042598895826203 14.720975007462267 0 0 0
342 1 5.507929424887755 8.51051508380109 14.162568030997939 0 0 0
361 1 8.086133997894127 9.374567171603502 17.536361895282436 0 0 0
889 2 5.491367832579638 6.071738762583241 17.86702722778054 0 0 0
1138 3 8.40524653673171 8.920932231650507 14.472926210945392 0 0 0
354 1 11.364986272104861 8.878220827292521 14.710293028282448 0 0 0
893 2 11.22031925607054 6.212770389023208 17.397783215271648 0 0 0
373 1 14.031506864003045 9.067831545048508 17.364647300660163 0 0 0
150 1 17.105080987540724 8.592686672568114 14.665847300540928 -1 0 0
353 1 14.357006561528175 6.112166322367612 14.355732858840373 0 0 0
825 2 16.854690909387532 6.412270928942113 17.930814106429374 -1 0 0
1142 3 14.296323582852082 8.915231018711593 14.645562928450373 0 0 0
829 2 22.576193896747046 6.178556718346441 17.34902744764843 -1 0 0
149 1 20.550085081833203 6.278999800399711 14.10535664593063 -1 0 0
169 1 19.73799647516032 9.299464863934766 17.743854687478702 -1 0 0
1074 3 19.908833469748615 9.29437740545084 14.923461090034673 -1 0 0
167 1 2.9963529595089713 11.98232400706642 14.053856517535547 0 0 0
347 1 8.424121087053349 11.855703299328985 15.00465307951319 0 0 0
891 2 5.304679133268293 11.879144472698814 16.953138247350935 0 0 0
895 2 11.260675050242096 11.423037056222922 17.13240802837136 0 0 0
359 1 14.193673346125085 11.988290927548782 14.928914428878048 0 0 0
827 2 16.924298235438012 11.926620832415598 17.301996549898057 -1 0 0
162 1 23.081296396324 9.410190123289732 14.84374413363096 -1 0 0
831 2 22.874733452169455 11.775370662425626 17.208852537044766 -1 0 0
155 1 19.72061609296819 12.063337746266736 14.882529547198322 -1 0 0
65 1 2.5716648584705797 17.790863545587687 14.811874082518273 0 -1 0
187 1 2.3455040676690384 14.25832279069959 17.428031875814018 0 0 0
1080 3 2.571089282730961 14.916224975444083 14.514935091128446 0 0 0
245 1 8.526651876520804 17.930562421897395 14.6742863114988 0 -1 0
348 1 5.3210175059815 15.32375553879913 14.260213256658318 0 0 0
367 1 7.494543242013023 14.654361216006258 17.0382677592825 0 0 0
857 2 5.952097389372626 17.744095816279774 17.209616689653124 0 -1 0
1140 3 8.315156147687802 14.835592914378926 14.36543091804411 0 0 0
360 1 11.508637164608544 14.945116749595838 15.335706612086849 0 0 0
861 2 11.48370253875467 18.039875380156243 17.629175412913202 0 -1 0
257 1 14.304974481570019 17.75634469392953 14.296403749244853 0 -1 0
379 1 15.112036659208304 14.847850141376318 17.601552099406593 0 0 0
793 2 17.136453072045423 18.185190938533786 17.269050341828926 -1 -1 0
1144 3 14.300209625642836 14.898718158694901 14.693186676974634 0 0 0
168 1 23.085485653590556 14.60711063587909 14.946312782932393 -1 0 0
797 2 23.10122254250079 17.550888497245705 17.06320902350503 -1 -1 0
53 1 20.010968817478403 18.121150355894336 14.351876761351523 -1 -1 0
175 1 19.110964958174915 15.02339852833195 17.828284802031668 -1 0 0
1076 3 19.998744362520362 15.27621344911121 14.81730640476271 -1 0 0
85 1 2.2031560026814065 21.662441772287643 17.0712076614958 0 -1 0
1046 3 2.321438278005323 20.48253488921391 14.240787822124217 0 -1 0
246 1 5.264734586530548 20.831109879733603 14.166416491666464 0 -1 0
265 1 7.76255864444767 20.868865451463012 17.34000426845863 0 -1 0
1106 3 8.37208734345107 20.747268141889062 14.253097724124387 0 -1 0
863 2 11.309902700966216 22.72554807749415 17.517719083611166 0 -1 0
258 1 11.116557266420983 20.94765012636939 14.60706026404902 0 -1 0
277 1 14.094286928860026 20.475130042382922 17.114030005485258 0 -1 0
1110 3 14.07433786117028 20.92593015927779 14.229862193936084 0 -1 0
54 1 17.00298066920476 21.03031954757211 14.467735565835538 -1 -1 0
66 1 22.90720984541935 20.399007145094703 14.62684726334132 -1 -1 0
73 1 19.819684025903616 20.88684298741383 17.25114397498048 -1 -1 0
1042 3 20.137377699188356 21.114148834515106 14.518369877822554 -1 -1 0
92 1 2.87389184604381 0.11735943363939473 20.821019400874548 0 0 0
1055 3 2.2934784103001995 2.7681433045111126 20.149533717402097 0 0 0
273 1 5.171566842775304 2.9732129830715652 19.65267450040857 0 0 0
1115 3 8.579002631676161 2.7133088216893753 20.41104716499326 0 0 0
274 1 7.633805752653545 3.5103766148647217 22.951795994944888 0 0 0
860 2 5.97408579621197 0.1587060591317128 22.587045724377383 0 0 0
285 1 11.236216262769924 3.0251719933686774 20.427001852560437 0 0 0
1119 3 13.97897200488064 3.1803678632321892 20.231295493709318 0 0 0
286 1 13.763348589984528 1.6543175173890865 22.52479074306035 0 0 0
81 1 16.852314013263683 3.7368931931365723 20.254067891299577 -1 0 0
284 1 15.204470380177298 0.20209065157906533 19.554630148360665 0 0 0
796 2 17.259993383599053 0.3974143838767917 22.157986229550918 -1 0 0
93 1 22.646754493293106 2.862355994525733 19.81124696411599 -1 0 0
80 1 19.670125005640994 0.27671028150375265 19.780204102682738 -1 0 0
1051 3 19.83978145987632 3.3326683997382114 20.14560465361129 -1 0 0
182 1 1.9041202948411666 6.145462476833455 19.145149629752595 0 0 0
1085 3 2.193363547869302 8.828130871094992 20.237399609493675 0 0 0
184 1 2.588012494332489 7.950700984340834 22.993946970459476 0 0 0
362 1 8.094474446565538 5.587618493950931 20.10010034071833 0 0 0
363 1 5.282030214866125 8.752867518534169 20.372771906100667 0 0 0
1145 3 7.96306868133199 8.43038708530373 20.692381312035796 0 0 0
890 2 4.84335500674281 5.465384837019218 22.49087577741378 0 0 0
375 1 11.055302379859812 9.104652595084765 19.993583494660484 0 0 0
374 1 13.781164746681215 6.190834561871606 19.626419732583702 0 0 0
1149 3 14.004790867876132 8.976619814373338 20.39178863461478 0 0 0
894 2 10.644065923605737 6.082078444366253 22.919494059042602 0 0 0
171 1 17.171779602904664 9.25320919568139 20.42930049163368 -1 0 0
826 2 17.207616273896782 6.539379195074187 22.881473833872892 -1 0 0
183 1 22.766301819318116 8.546692949765427 20.18979040609002 -1 0 0
170 1 20.115317251142674 6.100887327279043 20.569794769454134 -1 0 0
1081 3 19.938026309156875 9.151464418245173 20.717835962553394 -1 0 0
830 2 23.338469774085404 5.553735330444455 22.535249216910643 -1 0 0
188 1 1.4618346123038193 11.767580249873221 20.629513321178887 0 0 0
368 1 8.02768751845862 11.433564063687776 20.977814959851315 0 0 0
892 2 4.98691056718873 11.701236873829469 22.811485382878317 0 0 0
380 1 13.830099660639696 11.980025647862227 20.040218277288208 0 0 0
896 2 11.057740396492376 11.985140080692863 23.07389805212312 0 0 0
176 1 20.244168060277854 12.057251612962695 20.151426972998117 -1 0 0
86 1 2.229369645697381 17.768076335696076 19.616005179301496 0 -1 0
1087 3 2.2081621816816885 14.685028071342359 20.186810120251316 0 0 0
190 1 1.6757463632489846 14.248180161494684 23.04794238635179 0 0 0
266 1 8.361435698165215 17.44717175342807 20.00998848046809 0 -1 0
369 1 5.194863916303429 14.53299236548627 20.234390382723486 0 0 0
1147 3 8.279145106970237 14.234017830829494 20.056858764659147 0 0 0
370 1 8.031145618954266 14.527526768370617 22.661514085547132 0 0 0
858 2 4.757238715955255 17.64372889043353 22.20125357767905 0 -1 0
381 1 11.302059704862279 14.761952626602628 19.062050149592547 0 0 0
1151 3 13.93508854305166 14.899029657099268 20.2386095119279 0 0 0
862 2 10.685532207786867 17.297112359306546 23.0394361757136 0 -1 0
177 1 16.810957134229447 14.592429231277318 21.087310004500523 -1 0 0
278 1 14.149850503557342 17.97041457156968 20.06580430372874 0 -1 0
794 2 17.064221966819495 17.785852189084693 22.52391431172698 -1 -1 0
189 1 22.70337951819076 14.724547347558556 19.9970688831331 -1 0 0
74 1 19.9061531453451 18.09691057596178 20.127316553167486 -1 -1 0
1083 3 19.76278937468865 15.172200635592416 20.604224143595665 -1 0 0
798 2 23.319060366426914 17.361753712175144 22.61677022116026 -1 -1 0
1053 3 2.538572911535459 20.722466837161015 19.64973556310403 0 -1 0
88 1 2.0241268845969276 20.36016767081664 22.720421762256315 0 -1 0
272 1 8.656493553079326 23.27493987591231 20.243721766918842 0 -1 0
267 1 5.693742679606827 20.083775096289383 20.207331402795464 0 -1 0
1113 3 8.536455377800296 20.32480161252567 19.982811036281717 0 -1 0
268 1 8.820243482055329 20.456189047368337 23.004765991694743 0 -1 0
279 1 11.700659129289965 20.87878195728483 20.09685828906547 0 -1 0
75 1 17.445315314302828 20.859497002173182 20.207857569321725 -1 -1 0
1117 3 14.585880829879963 21.064930943158107 20.454807945375624 0 -1 0
87 1 23.243892658318714 20.72246839449515 19.612379489617616 -1 -1 0
1049 3 20.241650208254484 20.885403327395966 20.334157014458793 -1 -1 0
800 2 23.259551468877493 23.158117041366715 23.02407077691808 -1 -1 0
94 1 2.246513743284673 3.2328390079221996 23.13982749475085 0 0 0
95 1 2.727934415415494 0.04988600792393828 24.475436989144058 0 0 0
1056 3 2.0539454827232486 2.681314665686661 25.83893379687383 0 0 0
276 1 5.3308151290993875 2.835319954672493 25.110340909604822 0 0 0
1116 3 8.468716560133714 2.8993361099688055 25.604132761378274 0 0 0
288 1 10.95694288608573 2.839584041168499 24.529223171685935 0 0 0
287 1 13.28947673256134 0.30804639438898906 26.664508309677636 0 0 0
84 1 16.90382349832341 2.1392792514793824 25.073001552176716 -1 0 0
1120 3 14.374739643883403 2.9749320165124837 24.986073282195456 0 0 0
96 1 22.85955095639862 2.6326735677454316 24.85175291597078 -1 0 0
82 1 20.050227147920463 3.286163036377369 23.115420252931894 -1 0 0
83 1 20.32867162823271 0.39340508457726764 25.92334021373214 -1 0 0
1052 3 20.182289431253327 3.1941513235467553 26.048843440523427 -1 0 0
185 1 1.7896547885101708 5.345791263268191 26.705549742496157 0 0 0
1086 3 2.304845677304712 8.77679433236741 25.85523375879741 0 0 0
364 1 7.118654635931818 8.213831333437827 23.530739706381134 0 0 0
365 1 8.563053345972074 5.7947521650493945 26.298192295885134 0 0 0
366 1 5.198220625106757 9.167501333200676 26.61557168095424 0 0 0
1146 3 8.010856222539767 9.185016510218025 26.14650379469009 0 0 0
378 1 11.02651128843829 9.069173764303901 25.162443656976695 0 0 0
377 1 13.738381507325881 5.161917532945921 23.42762732818444 0 0 0
174 1 17.053011140134227 9.249212966155389 25.21962906938312 -1 0 0
1150 3 14.713535103218103 8.051502281711366 25.559993501143932 0 0 0
578 1 15.298410346659457 5.156868592473562 26.91943540794655 0 0 0
186 1 22.886434607155532 8.910930201911729 24.905625517828526 -1 0 0
172 1 19.757018152577448 8.935482367877965 23.535708421934043 -1 0 0
173 1 21.37672055871632 5.590257318332641 25.2738458202261 -1 0 0
1082 3 20.62307029251575 8.120392601994256 26.59280512215952 -1 0 0
191 1 1.9830685706293658 11.52031714197951 25.593693995639878 0 0 0
371 1 7.527111691409687 11.845651096496965 24.90409623048702 0 0 0
376 1 13.910562294145219 9.589040722766192 23.146502435518997 0 0 0
383 1 14.142717727012958 11.124486142931202 26.487795615491677 0 0 0
828 2 17.10238774036627 11.967874904274531 23.107388204804394 -1 0 0
1187 3 17.39796258187324 12.551993303181447 27.342820562873076 -1 0 0
832 2 22.29291915382959 12.491454626000845 23.273627349791436 -1 0 0
179 1 19.648362874304965 12.672925295758331 25.660765639391055 -1 0 0
902 2 22.52360616286639 11.904491174330971 27.407325104983983 -1 -1 0
89 1 2.6162769670687305 17.750222494233086 25.09230153137786 0 -1 0
1088 3 1.9760040625606279 15.114518963822414 26.1114618576259 0 0 0
269 1 7.4954821259823 17.349455554281615 25.5239774846432 0 -1 0
372 1 4.78130917318636 14.463363809808364 25.818666610023428 0 0 0
1148 3 7.961943512553103 14.643277621611567 25.91533811923988 0 0 0
384 1 10.783722248578227 15.798010246672447 25.886683243469516 0 0 0
281 1 13.575127607158512 18.35924211661401 23.69044390170454 0 -1 0
382 1 13.6267955493855 14.115992263072155 23.51567315868235 0 0 0
1152 3 13.132003392842192 14.400993958472142 26.5168480781509 0 0 0
674 1 13.317085981852218 17.88460503099002 27.50285616569875 0 0 0
180 1 16.57250039557839 14.762711792421948 25.954320112049192 -1 0 0
192 1 22.606652269230977 14.936659582108563 25.4916717977703 -1 0 0
77 1 19.94884436923824 18.313824191530404 24.44481435233015 -1 -1 0
178 1 19.675989489100157 14.947616193881432 23.35723543353367 -1 0 0
1084 3 19.543206028275815 15.828948843533807 26.233665734407595 -1 0 0
901 2 23.23617810913348 18.13877752517023 27.57572173271046 -1 -1 0
1054 3 2.148730057901149 21.15995838397314 25.661305692438358 0 -1 0
275 1 8.091851200669842 23.388381163037646 25.2314789800378 0 -1 0
270 1 4.743120786933675 20.365425069880427 24.627074798995704 0 -1 0
1114 3 7.4154390570471 20.65181794865253 25.76114549689591 0 -1 0
864 2 11.690702926195861 22.878734691482876 23.49856398080245 0 -1 0
282 1 10.715211076952214 19.965226867522556 26.04962121754065 0 -1 0
1118 3 13.624641185464833 19.94641214886799 25.879399228338617 0 -1 0
78 1 16.480071621205354 19.42258447858775 26.340111987773657 -1 -1 0
280 1 14.789711298504091 21.684131689295295 23.20328419736282 0 -1 0
90 1 22.69762390328004 21.04579077347875 25.336527848797285 -1 -1 0
76 1 19.62476503564503 21.32251650932584 23.107365625886317 -1 -1 0
1050 3 19.09653581371952 20.221410721304768 26.007624060196775 -1 -1 0
386 1 3.3924494150990996 2.733587553379935 29.10368782775775 0 0 0
600 1 7.985447989918991 2.7908294367733304 28.505498639243324 0 0 0
1219 3 5.954474625895677 0.9963593226227332 29.307862040197442 0 0 0
393 1 5.869765177549658 3.445006065185238 31.148679494128277 0 0 0
579 1 8.488225070989651 0.759304325311183 31.254806182028673 0 0 0
595 1 11.776434049187 0.5305201780786186 29.876129814698977 0 0 0
997 2 11.796105655129109 3.9704686521128125 27.98786334584639 0 0 0
1223 3 12.25354500435783 2.0399958897811867 32.26134019681909 0 0 0
583 1 14.656954301874553 0.8394200229990231 31.81820088259464 0 0 0
408 1 18.09305215400038 2.144154430700663 29.178347841322562 -1 0 0
1155 3 15.736643250118853 0.2828505648828719 28.943256001284556 -1 0 0
1153 3 21.179753079564865 0.023375158890444052 28.61226152530874 -1 0 0
388 1 21.916062216812197 3.3024806267024673 28.588974982317662 -1 0 0
934 2 20.15587510923124 4.6878074616651215 31.756491526030246 -1 0 0
933 2 0.18900746636817595 5.710710568154083 30.28155106697178 0 0 0
500 1 1.4348099375537084 8.86385384113751 28.65603181532579 0 0 0
494 1 4.375504853315399 8.042003135847265 30.778127510765934 0 0 0
898 2 5.320502004956238 5.6016546354589245 28.37934641274572 0 0 0
678 1 8.88509818701908 8.315554127277577 31.702518059658352 0 0 0
998 2 9.106745761510597 4.905819036583025 31.00685531666965 0 0 0
687 1 10.610103971556361 7.271675687370283 28.754590851477264 0 0 0
1250 3 11.416790391991686 8.249347489916934 31.420304109990944 0 0 0
597 1 12.407275275641037 5.45785108204435 31.136401288570756 0 0 0
962 2 16.615705632994466 5.22308593776619 30.679708199227264 0 0 0
692 1 14.279578645948728 8.014213054711675 28.67633747450869 0 0 0
1185 3 18.583351932863017 8.75692893589046 31.163714702513285 -1 0 0
688 1 15.821853256534341 8.650915065051914 31.926964431008216 0 0 0
495 1 21.286088953758146 7.979499488688552 30.987586604245397 -1 0 0
493 1 19.004453810817054 6.860586108716139 28.33089660524561 -1 0 0
482 1 2.5313691281509465 12.600320471958574 28.90828366841608 0 0 0
1189 3 2.471586599104166 9.97493641435617 31.091867415634553 0 0 0
487 1 5.2850617246929215 11.894569261170062 31.417060823975362 0 0 0
1251 3 5.340824369661844 12.054081415672096 28.363626198512485 0 0 0
675 1 7.932412414373462 10.383356010426626 28.829799408446526 0 0 0