LAMMPS data file via write_data, version 29 Sep 2021, timestep = 100

320 atoms
3 atom types

0 41.7368 xlo xhi
0 19.162 ylo yhi
0 17.761 zlo zhi
0 0 0 xy xz yz

Masses

1 132.905
2 126.9
3 207.2

Atoms # atomic

1 1 4.401210661102549 1.4033671303703223 11.809166501164952 0 0 0
2 1 0.4763970941837695 3.736950454497053 3.189937033705367 0 0 0
3 1 5.768391903105999 3.9309456368961064 5.717810044397893 0 0 0
4 1 9.188585928256545 0.5784350226856276 14.872479892479916 0 0 0
5 1 4.505433376610854 5.890615907301786 11.847279933455626 0 0 0
6 1 0.8490757064258709 8.211903708138852 2.731878735331685 0 0 0
7 1 6.308224042133834 8.351433612329409 5.814873579593903 0 0 0
8 1 9.516961508961666 6.030611131274253 14.716423119654364 0 0 0
9 1 4.359663735112874 10.975032593353081 12.048624963592776 0 0 0
10 1 0.79088296887894 13.007562981549672 2.932347863526133 0 0 0
11 1 6.267747116869903 13.041382602815533 5.811962626121428 0 0 0
12 1 9.68199416341762 11.081852737680691 14.582578287737064 0 0 0
13 1 4.386639076557396 15.602621077761174 11.658949902911308 0 0 0
14 1 0.6762368491152839 17.71286285697783 3.0577109509385036 0 0 0
15 1 6.613668216485205 18.21303041752494 6.046277904831594 0 0 0
16 1 9.68186758264503 15.564011367623166 14.325986417236823 0 0 0
17 1 14.686374963636181 1.5184476103683335 11.925659018025671 0 0 0
18 1 10.957778548288195 3.630314360998433 3.009059427556085 0 0 0
19 1 16.5283377749793 3.3980622941883425 5.5148901568584785 0 0 0
20 1 19.93730527369043 1.178199611149274 14.659235271783984 0 0 0
21 1 14.910833875248857 6.054204641395948 11.736422286200849 0 0 0
22 1 11.333485917364579 8.253816056243263 3.335820883502389 0 0 0
23 1 16.769798130859137 8.396011642891448 5.709050335985499 0 0 0
24 1 19.94408488467384 6.078080449781138 14.696014828135757 0 0 0
25 1 14.768174416375604 10.864732743953489 12.332524900012357 0 0 0
26 1 11.313031654290972 12.997185364170416 3.1105164557496128 0 0 0
27 1 16.298884366457333 12.936810394330298 5.967226576752727 0 0 0
28 1 19.783801182707002 10.360388077921783 14.72214189147919 0 0 0
29 1 14.824962231737828 15.757499851498144 12.01818687174439 0 0 0
30 1 11.202247825665982 18.10025010559611 2.9407636951087137 0 0 0
31 1 16.55610522385142 17.68794572015135 5.93448145388689 0 0 0
32 1 19.867290176944138 15.290347145440014 14.986881944482247 0 0 0
33 1 25.14464525598038 0.9601797419409757 12.188638592489223 0 0 0
34 1 21.330713925470327 3.761831615299483 2.766744060672231 0 0 0
35 1 26.965121646665217 3.2174238925571546 5.685850323269509 0 0 0
36 1 30.5951438787278 1.2036407894187993 14.80674108921777 0 0 0
37 1 25.326797988441143 6.16184479495444 12.258706679207824 0 0 0
38 1 21.9707827524677 7.635238768927835 3.230293388318897 0 0 0
39 1 26.65432950212021 8.753336531585058 5.956973958869452 0 0 0
40 1 30.32903165671118 6.120792764681198 14.566480265331881 0 0 0
41 1 25.50191592747954 10.887028710340656 11.937578904441292 0 0 0
42 1 21.449475524744955 13.181820320665121 3.307428085190521 0 0 0
43 1 27.097701096727985 13.412412729746974 5.914559097303787 0 0 0
44 1 30.664039977430708 10.802866665472887 14.920422969671888 0 0 0
45 1 25.78699425960755 15.575787848142813 12.241545394759331 0 0 0
46 1 21.55808895390696 18.329634033873063 3.4238706742068827 0 0 0
47 1 27.280013755945998 17.879969729330536 5.911964689755495 0 0 0
48 1 30.264328943381418 15.427356852745003 14.625921988659748 0 0 0
49 1 35.70060392137619 1.0256560425521706 11.509674945119421 0 0 0
50 1 32.38716347023976 3.7858320095476214 3.09182275609882 0 0 0
51 1 37.316625291046286 3.477996567943732 5.964970283951209 0 0 0
52 1 41.07318709086812 1.1556973125697532 14.20638324374652 0 0 0
53 1 35.46218332835244 6.0281910606726505 12.337314967936797 0 0 0
54 1 32.61233108029658 8.644073353657268 2.6943851904171576 0 0 0
55 1 37.483599735332476 8.552809295154177 6.075682293278109 0 0 0
56 1 40.9467275591317 5.81744083586175 14.790737836736017 0 0 0
57 1 36.03810691786004 10.584279183317776 11.718484897216896 0 0 0
58 1 32.32812197823476 13.490446649118825 3.063359647568466 0 0 0
59 1 37.16733778820288 13.162368793104033 5.861861500731895 0 0 0
60 1 40.74803281636518 10.947259688136814 14.692962352424075 0 0 0
61 1 35.64866277675651 15.451112482748455 12.021526554303712 0 0 0
62 1 32.08947224937662 17.950689416128167 3.0431220565938077 0 0 0
63 1 37.11614553678166 18.06282929851072 5.999509517829726 0 0 0
64 1 40.85250418905214 15.80474998991232 14.756584173306111 0 0 0
65 2 1.774904783421295 1.3084508170962237 0.38009476668021414 0 0 0
66 2 3.5021540971203793 3.447200952124912 8.848275488034247 0 0 0
67 2 8.706682845547492 3.5838956105991455 17.383115233188644 0 0 0
68 2 6.772522573780946 1.1535455595807724 8.904982307398615 0 0 0
69 2 3.3144994892389077 0.8625534181137299 5.122499525572202 0 0 0
70 2 2.195587185766496 3.8329562707027507 13.832516421176539 0 0 0
71 2 7.3329779392125065 3.4401244480609154 12.626553993497353 0 0 0
72 2 8.047713466039049 1.4610056678124725 3.7964066111204855 0 0 0
73 2 0.4244326435565866 1.4117672593457335 10.759015702970798 0 0 0
74 2 4.947637012144634 3.5813187530897648 2.222698507864867 0 0 0
75 2 10.114576878283586 3.327734984495704 6.403183314384966 0 0 0
76 2 5.429786158438666 1.301114131780312 15.587180858929173 0 0 0
77 2 1.970481976472993 6.030603286717254 0.38103444606986014 0 0 0
78 2 3.8651392324268814 8.474335511567135 8.609597874173819 0 0 0
79 2 8.761203321396863 8.703531898242977 17.437797338966703 0 0 0
80 2 6.823515677990059 6.068220476824231 8.68336531568768 0 0 0
81 2 2.9103146397347723 5.846994887094929 4.8200086858426605 0 0 0
82 2 1.9415310268832886 8.452656968346934 13.805329008271682 0 0 0
83 2 7.075568407603683 8.524079736965449 12.61931246094767 0 0 0
84 2 8.38484767255313 6.2715339401948675 3.7550701423884387 0 0 0
85 2 0.3930031002504494 6.178320080677874 11.001910094481424 0 0 0
86 2 5.042344210172367 8.63001637688533 1.9464918639378679 0 0 0
87 2 10.000542165048516 8.285087843637248 6.842784164186882 0 0 0
88 2 5.628378988074082 5.819042827198523 15.50121644307205 0 0 0
89 2 1.9176475927012908 10.672376498044112 0.2559385670700113 0 0 0
90 2 3.5833918718803517 12.97023323484673 9.052500251133498 0 0 0
91 2 9.06065464397704 13.39430028200744 17.522330080896246 0 0 0
92 2 6.873151386181787 10.864612406023562 8.836353195345268 0 0 0
93 2 3.3036038387161413 10.906796974314545 5.244592406441757 0 0 0
94 2 1.7323501696467225 13.211444348127866 13.942204672393496 0 0 0
95 2 7.235279730222552 13.155357823132695 12.711194714724012 0 0 0
96 2 8.518260588186637 10.780284030682397 3.617588444998888 0 0 0
97 2 41.57532407786049 10.724380197991415 10.998227370971811 -1 0 0
98 2 4.940496895243905 13.46902532202353 2.1821472283072096 0 0 0
99 2 10.221188706842282 13.271944268831696 6.55842874310593 0 0 0
100 2 5.558987745117399 10.742848932956433 15.701927463471366 0 0 0
101 2 1.6085574697935687 15.732048965422996 17.68298688722737 0 0 -1
102 2 3.74350266514257 17.80077553478605 8.744890365859819 0 0 0
103 2 8.843511168666993 18.18140489874959 0.19670388866958746 0 0 1
104 2 7.164056098410909 15.559582062409266 8.870608756264849 0 0 0
105 2 3.2131382105414876 15.928425226466095 5.045083926826344 0 0 0
106 2 2.2731747838676175 18.018211258711677 13.647083755836977 0 0 0
107 2 7.100637879148874 17.88736127909961 12.576995696207966 0 0 0
108 2 8.398856261845246 15.5550061828323 3.9772865587026867 0 0 0
109 2 0.634691344503034 15.444565885438477 10.846128358959005 0 0 0
110 2 4.7885112831247065 17.913858958468605 1.9107983536061974 0 0 0
111 2 10.19576542634431 18.180965766249024 6.533522859165505 0 0 0
112 2 5.515620120093134 15.364239104212638 15.744618034551578 0 0 0
113 2 11.961850570310613 1.1588996443809338 0.0172397492414628 0 0 0
114 2 14.190530936024492 3.844593765883541 9.01228476110258 0 0 0
115 2 19.239871062250202 3.329380809544082 17.39736976401721 0 0 0
116 2 17.203628796021224 1.2898637542419815 8.777818016487169 0 0 0
117 2 13.510468009023658 1.103223303164999 4.705944389338606 0 0 0
118 2 12.5503852159436 3.73916065834842 13.96966384923363 0 0 0
119 2 17.68525571303241 3.541659120978458 12.670789589449683 0 0 0
120 2 18.8013238990803 1.3938690116710757 3.821458940489927 0 0 0
121 2 10.517236695910587 1.2967798071110448 11.18557188010828 0 0 0
122 2 15.352572698661096 3.78021510875089 1.9051440649897622 0 0 0
123 2 20.535725524587193 3.5096543725171117 6.824668790817895 0 0 0
124 2 15.973253799590026 0.8914917670802758 15.642829726783967 0 0 0
125 2 12.015048805433368 5.9970318049706055 17.712871498589042 0 0 -1
126 2 13.72211099247495 8.31926513692498 9.084830242311332 0 0 0
127 2 19.305501560148443 8.493367699904034 0.09747800050916923 0 0 1
128 2 17.444037332851163 5.937377108411436 8.560711990848164 0 0 0
129 2 13.747307207453815 5.7492523126753925 5.345814642339946 0 0 0
130 2 12.669319062092693 8.329353598247748 14.171207342771726 0 0 0
131 2 17.283216687348254 8.501074409628753 12.514840578892095 0 0 0
132 2 18.630644804595445 6.061742472963233 3.726531319239162 0 0 0
133 2 10.760135042840066 5.686014457550231 11.068273530438484 0 0 0
134 2 15.061152670699348 7.926169197924052 2.3447980851343115 0 0 0
135 2 20.824668430969794 8.489163445984717 6.700158666814018 0 0 0
136 2 16.06630386884627 5.562410489432647 15.521543608642729 0 0 0
137 2 12.259885235994933 10.73878051557593 0.28937425215477686 0 0 0
138 2 13.804882345319335 13.262967102195876 9.13108142744208 0 0 0
139 2 19.218373856827462 12.860967668248767 17.59799961470807 0 0 0
140 2 17.543258984071308 10.60391126837136 8.432768431199197 0 0 0
141 2 13.612963696652564 10.431709147214935 5.042196493764372 0 0 0
142 2 12.768675939180328 13.31585338727048 13.84008723365761 0 0 0
143 2 17.93125000686137 13.095496305702675 12.939735085986749 0 0 0
144 2 19.194402340963677 10.494213277315218 3.7658817682644052 0 0 0
145 2 10.867561062786352 10.767409640898599 10.83233607908874 0 0 0
146 2 15.057851218345098 13.16982781690068 2.190979587808873 0 0 0
147 2 20.128447231231025 13.383944760927013 7.06948643074929 0 0 0
148 2 16.3282439598359 11.062578949624163 15.896358007889555 0 0 0
149 2 11.871352511150628 15.692848644322103 0.2687194140585259 0 0 0
150 2 14.057070949950774 17.973289065601083 8.897567527542943 0 0 0
151 2 19.25586226399731 17.89523044904521 0.43724508977680043 0 0 1
152 2 17.14424464040246 15.479571529726185 9.268756780913746 0 0 0
153 2 13.844386471631596 15.55021442423957 5.215647659037826 0 0 0
154 2 12.710880730673855 18.16053673851169 13.765988031830833 0 0 0
155 2 17.678400823123077 18.187638657621928 12.756087881227732 0 0 0
156 2 18.832305400477733 15.141697539177054 3.9496815393569658 0 0 0
157 2 10.855241615788108 15.572112204763737 11.050237646178639 0 0 0
158 2 15.32913659412693 17.85935529046257 1.8932509090297975 0 0 0
159 2 20.248323453536 17.517592438389386 6.757728240257013 0 0 0
160 2 16.00851130198595 15.472142483359587 15.846754894962642 0 0 0
161 2 22.611427465251605 1.3640424915611382 0.04892956678231226 0 0 0
162 2 24.15484158221901 3.541209294582436 8.91506134404547 0 0 0
163 2 29.805016403000007 3.3545956304207776 17.671790169160047 0 0 0
164 2 27.61911786374645 1.0633340183307358 8.87323597260977 0 0 0
165 2 23.82532880788848 1.5698975297930606 5.068900241430524 0 0 0
166 2 23.178494233656803 3.6477564991055242 13.85641194708968 0 0 0
167 2 28.381783171315615 3.600678329600926 12.834811818606491 0 0 0
168 2 29.081569309856086 1.0148927029319772 3.590822922962367 0 0 0
169 2 21.288056430934144 1.2746118167537102 10.950115112611957 0 0 0
170 2 25.789978710328082 3.815079161726835 2.1125944170234225 0 0 0
171 2 30.683746180536264 3.6259278573417317 6.937020588214491 0 0 0
172 2 26.35291591074346 0.7570206700676844 15.634578278823707 0 0 0
173 2 22.69889256265377 5.877338917840641 0.23276181158633283 0 0 0
174 2 24.595934658672075 8.507993524445983 9.168383036566375 0 0 0
175 2 29.63879431432466 8.414915841325122 17.50736301741028 0 0 0
176 2 27.907187189310825 5.698092263969387 8.790181654027915 0 0 0
177 2 24.4153066639081 5.922454440608179 5.152971954325611 0 0 0
178 2 22.625550986295814 8.507208382786574 14.026104498279045 0 0 0
179 2 28.116348640196826 8.506961165763256 12.96247467494938 0 0 0
180 2 29.503804893367228 6.0073247911144 3.68088159291558 0 0 0
181 2 21.38060026042777 5.67826793003971 11.19435029952536 0 0 0
182 2 25.810993536404176 8.279431307470254 2.1246899604422773 0 0 0
183 2 30.66621223844041 8.480766478489427 7.078450390592548 0 0 0
184 2 26.63581289655281 6.041768468594407 15.760073390583297 0 0 0
185 2 22.78377560641119 10.701042751136393 0.608106856494258 0 0 0
186 2 24.739932413748 13.195943110989123 8.771424129421998 0 0 0
187 2 29.363586574583902 13.23982065696718 17.74170287506834 0 0 0
188 2 27.884651414466894 10.844034450118315 8.82237314355902 0 0 0
189 2 23.843102404393516 11.064784074573064 4.842799154298773 0 0 0
190 2 22.873825399696013 13.140530399738383 13.781606151171923 0 0 0
191 2 28.435586640506216 12.77173491839806 12.82081489793438 0 0 0
192 2 29.295345538787334 10.493209824448385 3.7181975078888114 0 0 0
193 2 21.356510550782794 10.598068987093562 10.822291335078194 0 0 0
194 2 25.59789698102498 13.17608134840871 1.8881939226165605 0 0 0
195 2 30.844937488220875 13.222475266200878 6.757109698880806 0 0 0
196 2 26.489843684109037 10.633633391208066 15.69290438518625 0 0 0
197 2 22.41955993846675 15.387263418686855 0.2607526165690474 0 0 0
198 2 24.571633894753077 17.835739100887864 9.008025399319722 0 0 0
199 2 29.67862343671899 17.90999776229439 17.75586266697084 0 0 0
200 2 27.75054882192022 15.674546641813293 8.875601258725696 0 0 0
201 2 23.723587749721364 15.44253929717253 5.143020036499933 0 0 0
202 2 22.45585936076284 17.468802572232622 13.953021519657604 0 0 0
203 2 28.26601999623634 18.233401361439633 12.527221021981633 0 0 0
204 2 29.39852184767303 15.632175124171129 3.836514910588368 0 0 0
205 2 21.00155446511507 15.545221255587062 10.983648567321122 0 0 0
206 2 25.12750224002069 18.041887654269047 2.109340746286392 0 0 0
207 2 30.9944536195907 18.033411210251636 6.844174335326872 0 0 0
208 2 26.52944751009861 15.645872618040622 15.828530165001524 0 0 0
209 2 33.14371876805349 1.1076806896627358 0.23372651225414445 0 0 0
210 2 34.84020018469396 3.823491002237134 8.925377046736983 0 0 0
211 2 40.105234587586196 3.6082039296633406 17.53774921352073 0 0 0
212 2 38.463021840259664 1.053758757212154 8.847608532644058 0 0 0
213 2 34.47804545666544 1.3577081689293045 5.164951844948802 0 0 0
214 2 33.51733063340685 3.5239284716044375 13.728707022703823 0 0 0
215 2 38.40221956082683 3.5169258299880086 12.721095340103652 0 0 0
216 2 39.515533077984095 1.127487596693951 4.189114714911684 0 0 0
217 2 31.869804519717157 1.0543578863257212 11.145801433439432 0 0 0
218 2 35.988859519190996 4.032794095482174 1.910426967208257 0 0 0
219 2 41.19831500061759 3.7384289999147433 6.980009117227714 0 0 0
220 2 37.085015701027785 1.1381732292374378 15.828021974903464 0 0 0
221 2 32.93486436531634 6.074391665163329 0.11753644834119427 0 0 0
222 2 34.464116901361734 8.412920843141398 9.150298019184866 0 0 0
223 2 40.32897831450428 8.689494096254654 17.554208513508826 0 0 0
224 2 37.78739546005446 5.969431024879222 9.203760038336526 0 0 0
225 2 34.8541023955568 6.182522393681748 5.035085845508266 0 0 0
226 2 33.25645105148704 8.551515216752568 13.949262127799326 0 0 0
227 2 38.40822574997858 7.998221732919506 12.735391781378564 0 0 0
228 2 39.49489286713408 5.951096422802018 4.021128889315306 0 0 0
229 2 31.71497218558462 5.935693305333973 10.72835587475451 0 0 0
230 2 36.401974610696975 8.505971114624831 2.000476840580079 0 0 0
231 2 41.316234647782 7.994240634945334 6.874308376734047 0 0 0
232 2 36.99485047866006 5.815376141979711 15.894568348637934 0 0 0
233 2 32.92268274862053 10.894453562392025 17.72356091493658 0 0 -1
234 2 34.86989985976388 13.067342711744342 9.025902846333324 0 0 0
235 2 40.05037465160119 13.433033785410027 17.632599849049914 0 0 0
236 2 38.03410219376514 10.925109922023715 8.674461997545329 0 0 0
237 2 34.322440026301734 10.665439094985524 5.091861136271457 0 0 0
238 2 33.24819344746047 13.442879077292721 13.692335820572008 0 0 0
239 2 38.607326174733785 13.305289472759506 12.366784628312546 0 0 0
240 2 40.04579858683816 10.469065422086109 4.0601144186722005 0 0 0
241 2 31.604652194894665 10.767594980535582 10.997419475660783 0 0 0
242 2 36.047450250539256 13.09215720099462 1.9118508821386049 0 0 0
243 2 41.60656932818012 13.110730032353992 6.541418641344207 0 0 0
244 2 37.06660477752186 10.582882077924229 15.244085829806918 0 0 0
245 2 32.86522852258055 15.384463203491501 17.4722416972384 0 0 -1
246 2 34.56238143191513 17.896118410698605 9.185329318959246 0 0 0
247 2 40.02599808486727 18.393985281026197 0.04976344647323308 0 0 1
248 2 38.0592891323162 15.841545337732853 8.743673107679653 0 0 0
249 2 34.32031497446343 15.687217607754746 5.182631141175421 0 0 0
250 2 33.38162584522227 17.992134637507228 13.821796038592792 0 0 0
251 2 38.430434060333646 17.813908200569795 12.89514152644713 0 0 0
252 2 39.3041832540835 15.527498361482998 3.8572410793712875 0 0 0
253 2 31.674095105981706 15.627437376617948 11.069378142075191 0 0 0
254 2 36.04328068740289 18.21654794642323 2.005322062297239 0 0 0
255 2 41.400735692958584 17.707168224021924 6.798091081006512 0 0 0
256 2 36.86380276015788 15.50216077008642 15.676073917120858 0 0 0
257 3 1.2296118254444106 1.180681257764385 7.487129196631266 0 0 0
258 3 3.5198279290863166 3.6383817917209744 16.79857090206958 0 0 0
259 3 8.63722773951281 3.6290811092867212 9.785747032272232 0 0 0
260 3 6.644925442109545 1.2441879580632809 1.0091911628088983 0 0 0
261 3 1.9291031051549266 6.100434240822031 7.766202422032044 0 0 0
262 3 3.6903875342609864 8.354322699024346 16.507182177694844 0 0 0
263 3 8.819483167827588 8.264787227271677 10.137455719722688 0 0 0
264 3 7.223791478480514 6.186465273865599 0.8022119738870123 0 0 0
265 3 1.6112070312806446 10.700617733121641 7.86875526627542 0 0 0
266 3 3.3651590450248503 13.24991089913875 16.656133152536118 0 0 0
267 3 8.820470323066507 13.044403002695784 9.91734783865145 0 0 0
268 3 6.791537240941271 11.141770414974498 1.0071841179240546 0 0 0
269 3 1.7485425373041565 15.52781209604213 7.874931932095391 0 0 0
270 3 3.5775182026297614 17.996380071510334 16.54983192603941 0 0 0
271 3 8.948118700406678 18.10440215655848 9.906296338467802 0 0 0
272 3 7.033839503290587 15.856678840664822 1.0695851727640187 0 0 0
273 3 12.08959530696627 1.1283999636194524 7.563332201227305 0 0 0
274 3 14.059694824545902 3.3802189138219605 16.65259712829138 0 0 0
275 3 19.37673541391346 3.5403996649030174 9.986542412752275 0 0 0
276 3 17.297686941967232 1.3348763526225533 1.004872086307856 0 0 0
277 3 11.921082959329551 5.588764600065506 7.848716102313487 0 0 0
278 3 14.167785256247086 8.672129193407374 16.896480157885314 0 0 0
279 3 19.151342437184717 8.283764373427534 9.839684146866837 0 0 0
280 3 17.239668511312182 6.2414894708183155 0.8392232798345107 0 0 0
281 3 11.957015691839024 10.601104583835822 7.683845955143138 0 0 0
282 3 13.975425408838113 13.32319124662368 16.708752906033858 0 0 0
283 3 19.236065119317534 13.116355937098286 10.18054570024817 0 0 0
284 3 17.355095104230024 10.846233622090148 1.2728547196929283 0 0 0
285 3 12.0911013639257 15.6761509256614 7.838568305020035 0 0 0
286 3 13.89698307605951 17.873655604309924 16.737982534980926 0 0 0
287 3 18.979725345005992 18.02139536458958 9.927090512723744 0 0 0
288 3 17.217377706237404 15.422000084221134 1.2161496636353986 0 0 0
289 3 22.626724887599515 0.756530956260896 7.8522696727819845 0 0 0
290 3 24.45807438956708 3.6431095381014567 16.695647500245165 0 0 0
291 3 29.929033610291167 3.3250361443401095 10.016339688667713 0 0 0
292 3 27.555078336786885 1.5038945892916151 0.8780829857969616 0 0 0
293 3 22.64613290989234 6.114985491186188 7.740412356829934 0 0 0
294 3 24.054101282934063 8.380892295772924 16.68738643706295 0 0 0
295 3 29.439187896892573 8.20653523485962 10.072210274568517 0 0 0
296 3 27.742078751020053 6.072099931673693 0.9531659148172406 0 0 0
297 3 22.590823056105577 11.212428569140659 7.706913183089687 0 0 0
298 3 24.310451545917452 13.225218600167041 16.73175877143755 0 0 0
299 3 29.82407304536566 13.168466270626478 9.965224639449517 0 0 0
300 3 27.64765560330531 10.643841268070766 0.9324973233398621 0 0 0
301 3 22.32628016994691 15.482470293146825 7.988929639407374 0 0 0
302 3 24.344597744888265 17.723762641983317 16.90990516231824 0 0 0
303 3 29.833340443967828 18.065349694686542 9.798677704923497 0 0 0
304 3 27.57235520902956 15.538325910125915 1.169606778199812 0 0 0
305 3 32.974046035131416 1.2653116330424827 7.862091180555582 0 0 0
306 3 34.91540233330533 3.3578699694202694 16.55092607849775 0 0 0
307 3 40.20132900112737 3.8545782374550734 10.089601966734433 0 0 0
308 3 38.12535209154044 1.5030243281445554 1.328061117089585 0 0 0
309 3 32.98635943661619 6.070154295773183 7.610284729191965 0 0 0
310 3 35.2171571226202 8.378514706733117 16.435886529300276 0 0 0
311 3 39.91330683785974 8.234038352961406 9.802467476765152 0 0 0
312 3 38.29512707635719 6.002359301187333 1.150016140470799 0 0 0
313 3 32.76345183291343 10.927541550065131 7.838496227732664 0 0 0
314 3 34.66548204903765 13.063353326803398 16.43152246898639 0 0 0
315 3 40.10504351779099 13.111632932748641 9.558233860959414 0 0 0
316 3 38.48933783432142 10.789744248321538 1.4167407792221813 0 0 0
317 3 32.81298844745293 15.585532387446902 8.18503896347059 0 0 0
318 3 34.86330907422076 17.855663072519853 16.559295696008398 0 0 0
319 3 40.15065917285684 17.818450864484024 10.175795392630123 0 0 0
320 3 37.92245812878798 15.836524256679123 1.1076038231806475 0 0 0

Velocities

1 -0.8387169046975228 0.049485498935010065 -0.7098508923213028
2 -2.625992638311263 -1.6140848207871656 -0.14051725419805117
3 -0.7865369478104185 1.0115973358501473 0.7323755703288095
4 -0.8861287061037079 -1.6607826140519995 -0.8805361933433452
5 0.9012414686395402 0.44842089299477866 -1.5604279489775321
6 0.2400196266708347 -0.9559168418506816 0.8275278726359442
7 0.1706124399854394 1.1177711020196457 -0.601912238996019
8 -0.1780739095177128 0.7632872923173488 -1.663894018904441
9 -1.585446395492414 0.7602070438746418 0.8197162610670122
10 0.22047981679243023 0.23577437268366355 -0.9192703526488257
11 0.8360602596519758 0.24250379633758656 -0.3056506647594462
12 1.465493823176213 0.9793403907009844 -0.8347129420163828
13 0.688207488303702 -0.3198373015066169 -0.5055033244891444
14 -2.146728557645967 -0.37137512049797466 -0.4026350147113167
15 1.096923038281718 -0.39184744211836103 0.864362433970175
16 0.30645450792872364 0.238848851875012 0.015497247688155878
17 -0.8933520251187609 1.3025417140921292 -1.1488985446398887
18 -0.8979180523947862 0.758099983947544 -2.733406837562604
19 -0.49961830376161626 -1.170584438884178 -0.46167277082677166
20 1.235488974520925 -0.7180740112727185 -0.6968796174233802
21 0.4235357301322507 0.130447300418478 1.0579075294931886
22 0.5543871393347208 -2.223474701006436 -0.4153823567569159
23 0.37691537657043017 0.26969611739278254 -0.17635787266346614
24 -1.5373342792414104 -0.7881633076161222 0.24924246707750297
25 -1.322191925646314 1.7539897754442721 0.8914440208719296
26 1.172206369656709 0.44031816324732836 -0.05759870316645305
27 -1.4048630074453905 -1.8002648729267114 0.5989844899861687
28 -1.1152980687616723 -0.8201539521079774 -0.6467504136387104
29 1.4010837477851332 1.1964235470013622 0.2910508963971009
30 -0.5093352501951949 0.6585399512958351 2.291522692677814
31 1.5953715683074252 0.1303300350708767 0.41279410590201154
32 -0.8272837145261528 -0.5352538232575841 2.106801490025345
33 -2.7896345244633842 -0.010810477296042632 -0.03683026832200914
34 -2.3239183540575845 -0.23763889648639389 0.24532991189253447
35 1.3902862792023623 -0.820475444670891 0.18847377458303444
36 1.3085245500912701 -0.560966322174721 0.7713206247805598
37 0.9842986461042134 1.1708735247585815 0.8668506410227128
38 0.3076312563555072 -1.4452264875041478 1.4690662754796318
39 -1.4188490883681233 2.099359735049569 0.7653069526726527
40 1.71170462316114 0.3388854079875803 -0.3616225420526246
41 -1.0036209251343389 0.8548432849868858 -0.23166651627890197
42 -2.211155354290364 1.474315483211804 -1.2198173786980095
43 1.0352934424901228 0.8269244888293865 -1.619297596411399
44 1.2141014298856545 0.8943395289135677 0.8533031473644559
45 1.5643666151903026 -1.4418006128257972 1.1545168781514823
46 -0.16013468866403144 1.1642445951429405 1.5782396604020845
47 -0.3145988695819683 -0.7305825392430313 -0.5284599205828215
48 -1.8207207082829915 0.4536650127576143 -0.07588312986047326
49 1.6193040062645236 0.7639586150480244 -0.29829180807936073
50 0.6697385390582674 0.7777129496552718 0.7507511867819266
51 0.09773215086381153 0.5361072219809263 1.5780564028351662
52 1.2416341611642208 0.10161028480209702 -1.69257470642513
53 -1.0295342604613615 0.9969400398957071 0.9631927615672575
54 0.8699932998834575 -0.1292310564945302 -1.801756604285472
55 0.017816252561907536 0.5733548528753218 1.1035296798023628
56 0.4759274220528541 0.050239266187775924 -0.12498394039998025
57 0.34421974663707383 -0.3474267688203484 -0.5189650854332812
58 0.18595679618722072 0.06409692251595532 -0.6760319218943067
59 -1.6864772277648052 0.25417305832280285 -0.9207985378091857
60 -1.2367951724071222 0.4943489339441325 -0.19814676774646736
61 1.2684459352858675 0.09350748655665643 -0.6829395673491763
62 1.257767974663791 1.407745401226693 -0.6007907366698119
63 -2.1771894897491286 -0.35275417123849073 0.7004598164485176
64 0.018622571393181603 1.4466997819158882 0.4170291267875617
65 -0.11931892714190587 -0.25234359548058216 2.0650736899186803
66 -1.256785389456469 -0.5155849179287131 -1.2163445817900758
67 0.46416122815255945 -2.6243701923138523 -1.8963543955052167
68 -0.2303643860367749 0.4252265431528484 -0.1947282348064382
69 -0.7189071554567585 -1.112026164516213 0.5252900681876127
70 -1.1851470527397117 0.27594891679187067 -0.6948280228075482
71 1.2856550871786288 0.09991658661255479 0.545054226517974
72 -0.863075984051214 1.9468631526706646 -0.8026460842871126
73 2.1483081410952143 0.6189466385217083 -1.4706810594976527
74 0.1186277073280993 0.9422340211555191 -2.3108117336222698
75 -3.1245697708343756 -0.4184874702809985 -1.1470658399761582
76 0.6552822071139925 0.3446659815152204 -1.050513810214405
77 -1.2147741524275308 -0.9219044752793609 2.6799287487681083
78 0.9051167981491048 0.05772702608017588 -0.8092411598650281
79 0.36236958498079885 2.6749380872335036 -1.877933854642585
80 -1.730083060513271 2.264529151304702 -1.7622237268389147
81 -1.1699829395524068 1.647346905344629 -1.1309861201933273
82 -0.17568440376679512 0.6299222740088513 0.07899699822027799
83 0.5330323832013488 0.322612166455498 -0.1190723315743459
84 0.6350380636638993 -0.054995836304765185 -0.28657433822638323
85 0.42073635680473853 1.7485790718275436 -0.670679271573438
86 1.6185969056947946 1.5889517652450078 -1.0121979604276967
87 -0.6395908654764765 -0.34254175971479045 2.4213435043516016
88 1.2042015160845854 -0.09927181488480614 -0.310599233102018
89 1.495787249241135 0.3514555778388784 0.5216315967777785
90 -0.9388087376204082 -1.6239964200317385 -0.32934641529377007
91 0.30179070967178306 0.5149969663313197 -1.4612337683828631
92 0.7548140976024169 -1.551092016335591 -0.41437905082277854
93 0.31014407858476084 -0.015088926989584629 0.22103941516529027
94 -0.8966934023046564 0.6208070120968501 -1.0805015453548472
95 0.4247048043914185 0.3841611343505094 -0.5492666934617004
96 -0.8350305071012208 -0.2695747531510078 -0.1613782118587299
97 -1.0590854884835326 0.16688348020107827 -0.3623237814170126
98 0.09290069228344885 1.6448678922624385 -0.35432733171664943
99 -1.5579535419611004 -2.011910381537342 -1.4050837488199608
100 1.416622534750098 2.147579695235286 -0.670306562411186
101 -1.4330722124647781 0.3842321552849832 0.16877074812819967
102 0.19421907951026993 0.017616053681977994 -1.2124527224351973
103 0.04037518983035907 -0.3321583036348901 0.6454483184424243
104 -1.5809410115720068 -0.4615294198442647 -2.556575889647883
105 1.901938240421046 0.19466611338098933 0.07598544943937437
106 0.559325559390849 0.3483198396490806 -1.0824808699042925
107 -0.6261991403318529 -0.9730440736292252 -1.2650330786700048
108 0.7006040642185354 0.28396756202625345 1.6482516890429457
109 0.38965917885984586 -1.3598424720854558 1.617431271385518
110 -1.1904425243012002 0.5197655289247004 -0.4895805738334779
111 1.2017729085399182 1.7027296023564855 -0.930594479361777
112 0.4990457267839663 -0.030916979162099165 0.3465612040227638
113 0.17102455129355792 1.5862649428513362 -1.0466962746191713
114 -0.3175025755572671 -0.9919011024488449 -1.5647691750872292
115 0.2729807182829102 1.186893323079319 -2.5350828903254388
116 -0.950347748323236 -0.06619647478398923 -1.1841753202525493
117 -0.3070919011322312 -0.49631931969049087 0.03348770563333431
118 -0.7130784544889762 0.28016497418092867 0.11859684090456878
119 0.7993576787897135 0.29995538894918405 0.3010313621724568
120 -1.6025199082350057 0.03299960946105029 -1.132727643520597
121 0.909021823394672 1.627752754305423 0.9981746409377644
122 -0.6049798132193136 0.9958295060207094 -1.3123936332150727
123 1.6077486993110108 0.039199313270054534 1.6594991545822644
124 0.9987286322390239 0.20178717391066273 0.7402600305647847
125 2.091962626473949 0.40872067192671363 0.13630055526768065
126 -2.7837595643192925 1.493160759047313 -0.44821655455306353
127 0.6629076303127067 0.29959644720733 0.8744563490696993
128 -0.3223566141379934 -1.6131465418416355 -3.1876416055733454
129 -0.8021431554773659 -1.316577545577449 2.0105708956627644
130 0.3954592200684442 0.5789950563575943 1.549960020066077
131 -0.10253169582663244 -0.49636335465547193 1.0914650946684914
132 -0.6681215967127195 -0.4982117525912601 -1.8342047979395217
133 -1.232293698864398 -0.42386088907403363 0.11314498256920652
134 -2.532723550987102 -0.10804287121233845 0.5004066052838747