data.CPI (written by ASE) 

320 	 atoms 
3  atom types
0.0      41.736800000000002  xlo xhi
0.0      19.161999999999999  ylo yhi
0.0      17.760999999999999  zlo zhi
                      0                       0                       0  xy xz yz


Atoms 

     1    1            4.336870888      1.1976249999999999      11.915854900000001
     2    1    0.88022911199999998      3.5928749999999998      3.0353549000000006
     3    1     6.0973291120000006      3.5928749999999998       5.845145099999999
     4    1     9.5539708880000003      1.1976249999999999      14.725645099999998
     5    1            4.336870888      5.9881250000000001      11.915854900000001
     6    1    0.88022911199999998      8.3833749999999991      3.0353549000000006
     7    1     6.0973291120000006      8.3833749999999991       5.845145099999999
     8    1     9.5539708880000003      5.9881250000000001      14.725645099999998
     9    1            4.336870888               10.778625      11.915854900000001
    10    1    0.88022911199999998      13.173874999999999      3.0353549000000006
    11    1     6.0973291120000006      13.173874999999999       5.845145099999999
    12    1     9.5539708880000003               10.778625      14.725645099999998
    13    1            4.336870888               15.569125      11.915854900000001
    14    1    0.88022911199999998               17.964375      3.0353549000000006
    15    1     6.0973291120000006               17.964375       5.845145099999999
    16    1     9.5539708880000003               15.569125      14.725645099999998
    17    1     14.771070888000001      1.1976249999999999      11.915854900000001
    18    1     11.314429112000001      3.5928749999999998      3.0353549000000006
    19    1     16.531529112000001      3.5928749999999998       5.845145099999999
    20    1     19.988170887999999      1.1976249999999999      14.725645099999998
    21    1     14.771070888000001      5.9881250000000001      11.915854900000001
    22    1     11.314429112000001      8.3833749999999991      3.0353549000000006
    23    1     16.531529112000001      8.3833749999999991       5.845145099999999
    24    1     19.988170887999999      5.9881250000000001      14.725645099999998
    25    1     14.771070888000001               10.778625      11.915854900000001
    26    1     11.314429112000001      13.173874999999999      3.0353549000000006
    27    1     16.531529112000001      13.173874999999999       5.845145099999999
    28    1     19.988170887999999               10.778625      14.725645099999998
    29    1     14.771070888000001               15.569125      11.915854900000001
    30    1     11.314429112000001               17.964375      3.0353549000000006
    31    1     16.531529112000001               17.964375       5.845145099999999
    32    1     19.988170887999999               15.569125      14.725645099999998
    33    1     25.205270888000001      1.1976249999999999      11.915854900000001
    34    1           21.748629112      3.5928749999999998      3.0353549000000006
    35    1     26.965729112000002      3.5928749999999998       5.845145099999999
    36    1     30.422370888000003      1.1976249999999999      14.725645099999998
    37    1     25.205270888000001      5.9881250000000001      11.915854900000001
    38    1           21.748629112      8.3833749999999991      3.0353549000000006
    39    1     26.965729112000002      8.3833749999999991       5.845145099999999
    40    1     30.422370888000003      5.9881250000000001      14.725645099999998
    41    1     25.205270888000001               10.778625      11.915854900000001
    42    1           21.748629112      13.173874999999999      3.0353549000000006
    43    1     26.965729112000002      13.173874999999999       5.845145099999999
    44    1     30.422370888000003               10.778625      14.725645099999998
    45    1     25.205270888000001               15.569125      11.915854900000001
    46    1           21.748629112               17.964375      3.0353549000000006
    47    1     26.965729112000002               17.964375       5.845145099999999
    48    1     30.422370888000003               15.569125      14.725645099999998
    49    1     35.639470888000005      1.1976249999999999      11.915854900000001
    50    1           32.182829112      3.5928749999999998      3.0353549000000006
    51    1     37.399929112000002      3.5928749999999998       5.845145099999999
    52    1           40.856570888      1.1976249999999999      14.725645099999998
    53    1     35.639470888000005      5.9881250000000001      11.915854900000001
    54    1           32.182829112      8.3833749999999991      3.0353549000000006
    55    1     37.399929112000002      8.3833749999999991       5.845145099999999
    56    1           40.856570888      5.9881250000000001      14.725645099999998
    57    1     35.639470888000005               10.778625      11.915854900000001
    58    1           32.182829112      13.173874999999999      3.0353549000000006
    59    1     37.399929112000002      13.173874999999999       5.845145099999999
    60    1           40.856570888               10.778625      14.725645099999998
    61    1     35.639470888000005               15.569125      11.915854900000001
    62    1           32.182829112               17.964375      3.0353549000000006
    63    1     37.399929112000002               17.964375       5.845145099999999
    64    1           40.856570888               15.569125      14.725645099999998
    65    2     1.7030701240000001      1.1976249999999999    0.028417600000000001
    66    2     3.5140298759999999      3.5928749999999998      8.9089176000000005
    67    2     8.7311298760000007      3.5928749999999998      17.732582399999998
    68    2     6.9201701240000011      1.1976249999999999      8.8520824000000005
    69    2     3.1208692199999999      1.1976249999999999      5.1025576899999994
    70    2     2.0962307800000004      3.5928749999999998      13.983057690000001
    71    2     7.3133307800000011      3.5928749999999998      12.658442309999998
    72    2     8.3379692199999997      1.1976249999999999      3.7779423099999998
    73    2    0.33295532200000011      1.1976249999999999             10.91395689
    74    2     4.8841446780000002      3.5928749999999998      2.0334568899999996
    75    2           10.101244678      3.5928749999999998      6.8470431100000004
    76    2     5.5500553220000004      1.1976249999999999      15.727543109999999
    77    2     1.7030701240000001      5.9881250000000001    0.028417600000000001
    78    2     3.5140298759999999      8.3833749999999991      8.9089176000000005
    79    2     8.7311298760000007      8.3833749999999991      17.732582399999998
    80    2     6.9201701240000011      5.9881250000000001      8.8520824000000005
    81    2     3.1208692199999999      5.9881250000000001      5.1025576899999994
    82    2     2.0962307800000004      8.3833749999999991      13.983057690000001
    83    2     7.3133307800000011      8.3833749999999991      12.658442309999998
    84    2     8.3379692199999997      5.9881250000000001      3.7779423099999998
    85    2    0.33295532200000011      5.9881250000000001             10.91395689
    86    2     4.8841446780000002      8.3833749999999991      2.0334568899999996
    87    2           10.101244678      8.3833749999999991      6.8470431100000004
    88    2     5.5500553220000004      5.9881250000000001      15.727543109999999
    89    2     1.7030701240000001               10.778625    0.028417600000000001
    90    2     3.5140298759999999      13.173874999999999      8.9089176000000005
    91    2     8.7311298760000007      13.173874999999999      17.732582399999998
    92    2     6.9201701240000011               10.778625      8.8520824000000005
    93    2     3.1208692199999999               10.778625      5.1025576899999994
    94    2     2.0962307800000004      13.173874999999999      13.983057690000001
    95    2     7.3133307800000011      13.173874999999999      12.658442309999998
    96    2     8.3379692199999997               10.778625      3.7779423099999998
    97    2    0.33295532200000011               10.778625             10.91395689
    98    2     4.8841446780000002      13.173874999999999      2.0334568899999996
    99    2           10.101244678      13.173874999999999      6.8470431100000004
   100    2     5.5500553220000004               10.778625      15.727543109999999
   101    2     1.7030701240000001               15.569125    0.028417600000000001
   102    2     3.5140298759999999               17.964375      8.9089176000000005
   103    2     8.7311298760000007               17.964375      17.732582399999998
   104    2     6.9201701240000011               15.569125      8.8520824000000005
   105    2     3.1208692199999999               15.569125      5.1025576899999994
   106    2     2.0962307800000004               17.964375      13.983057690000001
   107    2     7.3133307800000011               17.964375      12.658442309999998
   108    2     8.3379692199999997               15.569125      3.7779423099999998
   109    2    0.33295532200000011               15.569125             10.91395689
   110    2     4.8841446780000002               17.964375      2.0334568899999996
   111    2           10.101244678               17.964375      6.8470431100000004
   112    2     5.5500553220000004               15.569125      15.727543109999999
   113    2           12.137270124      1.1976249999999999    0.028417600000000001
   114    2     13.948229876000001      3.5928749999999998      8.9089176000000005
   115    2     19.165329876000001      3.5928749999999998      17.732582399999998
   116    2     17.354370124000003      1.1976249999999999      8.8520824000000005
   117    2            13.55506922      1.1976249999999999      5.1025576899999994
   118    2     12.530430780000001      3.5928749999999998      13.983057690000001
   119    2     17.747530780000002      3.5928749999999998      12.658442309999998
   120    2     18.772169220000002      1.1976249999999999      3.7779423099999998
   121    2     10.767155322000001      1.1976249999999999             10.91395689
   122    2     15.318344678000001      3.5928749999999998      2.0334568899999996
   123    2     20.535444678000001      3.5928749999999998      6.8470431100000004
   124    2     15.984255322000001      1.1976249999999999      15.727543109999999
   125    2           12.137270124      5.9881250000000001    0.028417600000000001
   126    2     13.948229876000001      8.3833749999999991      8.9089176000000005
   127    2     19.165329876000001      8.3833749999999991      17.732582399999998
   128    2     17.354370124000003      5.9881250000000001      8.8520824000000005
   129    2            13.55506922      5.9881250000000001      5.1025576899999994
   130    2     12.530430780000001      8.3833749999999991      13.983057690000001
   131    2     17.747530780000002      8.3833749999999991      12.658442309999998
   132    2     18.772169220000002      5.9881250000000001      3.7779423099999998
   133    2     10.767155322000001      5.9881250000000001             10.91395689
   134    2     15.318344678000001      8.3833749999999991      2.0334568899999996
   135    2     20.535444678000001      8.3833749999999991      6.8470431100000004
   136    2     15.984255322000001      5.9881250000000001      15.727543109999999
   137    2           12.137270124               10.778625    0.028417600000000001
   138    2     13.948229876000001      13.173874999999999      8.9089176000000005
   139    2     19.165329876000001      13.173874999999999      17.732582399999998
   140    2     17.354370124000003               10.778625      8.8520824000000005
   141    2            13.55506922               10.778625      5.1025576899999994
   142    2     12.530430780000001      13.173874999999999      13.983057690000001
   143    2     17.747530780000002      13.173874999999999      12.658442309999998
   144    2     18.772169220000002               10.778625      3.7779423099999998
   145    2     10.767155322000001               10.778625             10.91395689
   146    2     15.318344678000001      13.173874999999999      2.0334568899999996
   147    2     20.535444678000001      13.173874999999999      6.8470431100000004
   148    2     15.984255322000001               10.778625      15.727543109999999
   149    2           12.137270124               15.569125    0.028417600000000001
   150    2     13.948229876000001               17.964375      8.9089176000000005
   151    2     19.165329876000001               17.964375      17.732582399999998
   152    2     17.354370124000003               15.569125      8.8520824000000005
   153    2            13.55506922               15.569125      5.1025576899999994
   154    2     12.530430780000001               17.964375      13.983057690000001
   155    2     17.747530780000002               17.964375      12.658442309999998
   156    2     18.772169220000002               15.569125      3.7779423099999998
   157    2     10.767155322000001               15.569125             10.91395689
   158    2     15.318344678000001               17.964375      2.0334568899999996
   159    2     20.535444678000001               17.964375      6.8470431100000004
   160    2     15.984255322000001               15.569125      15.727543109999999
   161    2     22.571470124000001      1.1976249999999999    0.028417600000000001
   162    2           24.382429876      3.5928749999999998      8.9089176000000005
   163    2     29.599529876000002      3.5928749999999998      17.732582399999998
   164    2     27.788570124000003      1.1976249999999999      8.8520824000000005
   165    2     23.989269220000001      1.1976249999999999      5.1025576899999994
   166    2            22.96463078      3.5928749999999998      13.983057690000001
   167    2     28.181730780000002      3.5928749999999998      12.658442309999998
   168    2     29.206369219999999      1.1976249999999999      3.7779423099999998
   169    2     21.201355322000001      1.1976249999999999             10.91395689
   170    2           25.752544678      3.5928749999999998      2.0334568899999996
   171    2     30.969644678000002      3.5928749999999998      6.8470431100000004
   172    2           26.418455322      1.1976249999999999      15.727543109999999
   173    2     22.571470124000001      5.9881250000000001    0.028417600000000001
   174    2           24.382429876      8.3833749999999991      8.9089176000000005
   175    2     29.599529876000002      8.3833749999999991      17.732582399999998
   176    2     27.788570124000003      5.9881250000000001      8.8520824000000005
   177    2     23.989269220000001      5.9881250000000001      5.1025576899999994
   178    2            22.96463078      8.3833749999999991      13.983057690000001
   179    2     28.181730780000002      8.3833749999999991      12.658442309999998
   180    2     29.206369219999999      5.9881250000000001      3.7779423099999998
   181    2     21.201355322000001      5.9881250000000001             10.91395689
   182    2           25.752544678      8.3833749999999991      2.0334568899999996
   183    2     30.969644678000002      8.3833749999999991      6.8470431100000004
   184    2           26.418455322      5.9881250000000001      15.727543109999999
   185    2     22.571470124000001               10.778625    0.028417600000000001
   186    2           24.382429876      13.173874999999999      8.9089176000000005
   187    2     29.599529876000002      13.173874999999999      17.732582399999998
   188    2     27.788570124000003               10.778625      8.8520824000000005
   189    2     23.989269220000001               10.778625      5.1025576899999994
   190    2            22.96463078      13.173874999999999      13.983057690000001
   191    2     28.181730780000002      13.173874999999999      12.658442309999998
   192    2     29.206369219999999               10.778625      3.7779423099999998
   193    2     21.201355322000001               10.778625             10.91395689
   194    2           25.752544678      13.173874999999999      2.0334568899999996
   195    2     30.969644678000002      13.173874999999999      6.8470431100000004
   196    2           26.418455322               10.778625      15.727543109999999
   197    2     22.571470124000001               15.569125    0.028417600000000001
   198    2           24.382429876               17.964375      8.9089176000000005
   199    2     29.599529876000002               17.964375      17.732582399999998
   200    2     27.788570124000003               15.569125      8.8520824000000005
   201    2     23.989269220000001               15.569125      5.1025576899999994
   202    2            22.96463078               17.964375      13.983057690000001
   203    2     28.181730780000002               17.964375      12.658442309999998
   204    2     29.206369219999999               15.569125      3.7779423099999998
   205    2     21.201355322000001               15.569125             10.91395689
   206    2           25.752544678               17.964375      2.0334568899999996
   207    2     30.969644678000002               17.964375      6.8470431100000004
   208    2           26.418455322               15.569125      15.727543109999999
   209    2     33.005670124000005      1.1976249999999999    0.028417600000000001
   210    2           34.816629876      3.5928749999999998      8.9089176000000005
   211    2     40.033729876000002      3.5928749999999998      17.732582399999998
   212    2           38.222770124      1.1976249999999999      8.8520824000000005
   213    2     34.423469220000001      1.1976249999999999      5.1025576899999994
   214    2     33.398830780000004      3.5928749999999998      13.983057690000001
   215    2     38.615930779999999      3.5928749999999998      12.658442309999998
   216    2     39.640569220000003      1.1976249999999999      3.7779423099999998
   217    2     31.635555322000002      1.1976249999999999             10.91395689
   218    2     36.186744678000004      3.5928749999999998      2.0334568899999996
   219    2     41.403844677999999      3.5928749999999998      6.8470431100000004
   220    2     36.852655322000004      1.1976249999999999      15.727543109999999
   221    2     33.005670124000005      5.9881250000000001    0.028417600000000001
   222    2           34.816629876      8.3833749999999991      8.9089176000000005
   223    2     40.033729876000002      8.3833749999999991      17.732582399999998
   224    2           38.222770124      5.9881250000000001      8.8520824000000005
   225    2     34.423469220000001      5.9881250000000001      5.1025576899999994
   226    2     33.398830780000004      8.3833749999999991      13.983057690000001
   227    2     38.615930779999999      8.3833749999999991      12.658442309999998
   228    2     39.640569220000003      5.9881250000000001      3.7779423099999998
   229    2     31.635555322000002      5.9881250000000001             10.91395689
   230    2     36.186744678000004      8.3833749999999991      2.0334568899999996
   231    2     41.403844677999999      8.3833749999999991      6.8470431100000004
   232    2     36.852655322000004      5.9881250000000001      15.727543109999999
   233    2     33.005670124000005               10.778625    0.028417600000000001
   234    2           34.816629876      13.173874999999999      8.9089176000000005
   235    2     40.033729876000002      13.173874999999999      17.732582399999998
   236    2           38.222770124               10.778625      8.8520824000000005
   237    2     34.423469220000001               10.778625      5.1025576899999994
   238    2     33.398830780000004      13.173874999999999      13.983057690000001
   239    2     38.615930779999999      13.173874999999999      12.658442309999998
   240    2     39.640569220000003               10.778625      3.7779423099999998
   241    2     31.635555322000002               10.778625             10.91395689
   242    2     36.186744678000004      13.173874999999999      2.0334568899999996
   243    2     41.403844677999999      13.173874999999999      6.8470431100000004
   244    2     36.852655322000004               10.778625      15.727543109999999
   245    2     33.005670124000005               15.569125    0.028417600000000001
   246    2           34.816629876               17.964375      8.9089176000000005
   247    2     40.033729876000002               17.964375      17.732582399999998
   248    2           38.222770124               15.569125      8.8520824000000005
   249    2     34.423469220000001               15.569125      5.1025576899999994
   250    2     33.398830780000004               17.964375      13.983057690000001
   251    2     38.615930779999999               17.964375      12.658442309999998
   252    2     39.640569220000003               15.569125      3.7779423099999998
   253    2     31.635555322000002               15.569125             10.91395689
   254    2     36.186744678000004               17.964375      2.0334568899999996
   255    2     41.403844677999999               17.964375      6.8470431100000004
   256    2     36.852655322000004               15.569125      15.727543109999999
   257    3     1.6735413380000002      1.1976249999999999      7.7787851699999999
   258    3     3.5435586619999997      3.5928749999999998             16.65928517
   259    3     8.7606586620000009      3.5928749999999998      9.9822148300000002
   260    3     6.8906413380000009      1.1976249999999999      1.1017148299999995
   261    3     1.6735413380000002      5.9881250000000001      7.7787851699999999
   262    3     3.5435586619999997      8.3833749999999991             16.65928517
   263    3     8.7606586620000009      8.3833749999999991      9.9822148300000002
   264    3     6.8906413380000009      5.9881250000000001      1.1017148299999995
   265    3     1.6735413380000002               10.778625      7.7787851699999999
   266    3     3.5435586619999997      13.173874999999999             16.65928517
   267    3     8.7606586620000009      13.173874999999999      9.9822148300000002
   268    3     6.8906413380000009               10.778625      1.1017148299999995
   269    3     1.6735413380000002               15.569125      7.7787851699999999
   270    3     3.5435586619999997               17.964375             16.65928517
   271    3     8.7606586620000009               17.964375      9.9822148300000002
   272    3     6.8906413380000009               15.569125      1.1017148299999995
   273    3           12.107741338      1.1976249999999999      7.7787851699999999
   274    3     13.977758661999999      3.5928749999999998             16.65928517
   275    3     19.194858662000001      3.5928749999999998      9.9822148300000002
   276    3     17.324841338000002      1.1976249999999999      1.1017148299999995
   277    3           12.107741338      5.9881250000000001      7.7787851699999999
   278    3     13.977758661999999      8.3833749999999991             16.65928517
   279    3     19.194858662000001      8.3833749999999991      9.9822148300000002
   280    3     17.324841338000002      5.9881250000000001      1.1017148299999995
   281    3           12.107741338               10.778625      7.7787851699999999
   282    3     13.977758661999999      13.173874999999999             16.65928517
   283    3     19.194858662000001      13.173874999999999      9.9822148300000002
   284    3     17.324841338000002               10.778625      1.1017148299999995
   285    3           12.107741338               15.569125      7.7787851699999999
   286    3     13.977758661999999               17.964375             16.65928517
   287    3     19.194858662000001               17.964375      9.9822148300000002
   288    3     17.324841338000002               15.569125      1.1017148299999995
   289    3     22.541941338000001      1.1976249999999999      7.7787851699999999
   290    3           24.411958662      3.5928749999999998             16.65928517
   291    3     29.629058662000002      3.5928749999999998      9.9822148300000002
   292    3     27.759041338000003      1.1976249999999999      1.1017148299999995
   293    3     22.541941338000001      5.9881250000000001      7.7787851699999999
   294    3           24.411958662      8.3833749999999991             16.65928517
   295    3     29.629058662000002      8.3833749999999991      9.9822148300000002
   296    3     27.759041338000003      5.9881250000000001      1.1017148299999995
   297    3     22.541941338000001               10.778625      7.7787851699999999
   298    3           24.411958662      13.173874999999999             16.65928517
   299    3     29.629058662000002      13.173874999999999      9.9822148300000002
   300    3     27.759041338000003               10.778625      1.1017148299999995
   301    3     22.541941338000001               15.569125      7.7787851699999999
   302    3           24.411958662               17.964375             16.65928517
   303    3     29.629058662000002               17.964375      9.9822148300000002
   304    3     27.759041338000003               15.569125      1.1017148299999995
   305    3     32.976141338000005      1.1976249999999999      7.7787851699999999
   306    3     34.846158662000001      3.5928749999999998             16.65928517
   307    3     40.063258662000003      3.5928749999999998      9.9822148300000002
   308    3           38.193241338      1.1976249999999999      1.1017148299999995
   309    3     32.976141338000005      5.9881250000000001      7.7787851699999999
   310    3     34.846158662000001      8.3833749999999991             16.65928517
   311    3     40.063258662000003      8.3833749999999991      9.9822148300000002
   312    3           38.193241338      5.9881250000000001      1.1017148299999995
   313    3     32.976141338000005               10.778625      7.7787851699999999
   314    3     34.846158662000001      13.173874999999999             16.65928517
   315    3     40.063258662000003      13.173874999999999      9.9822148300000002
   316    3           38.193241338               10.778625      1.1017148299999995
   317    3     32.976141338000005               15.569125      7.7787851699999999
   318    3     34.846158662000001               17.964375             16.65928517
   319    3     40.063258662000003               17.964375      9.9822148300000002
   320    3           38.193241338               15.569125      1.1017148299999995
