ITEM: TIMESTEP
0
ITEM: NUMBER OF ATOMS
320
ITEM: BOX BOUNDS xy xz yz pp pp pp
0.0000000000000000e+00 4.1736800000000002e+01 0.0000000000000000e+00
0.0000000000000000e+00 1.9161999999999999e+01 0.0000000000000000e+00
0.0000000000000000e+00 1.7760999999999999e+01 0.0000000000000000e+00
ITEM: ATOMS id type xs ys zs
1 1 0.105452 0.073237 0.664893
2 1 0.0114143 0.195019 0.179603
3 1 0.138209 0.205143 0.321931
4 1 0.220155 0.0301866 0.837367
5 1 0.107949 0.307411 0.667039
6 1 0.0203436 0.428551 0.153813
7 1 0.151143 0.435833 0.327396
8 1 0.228023 0.314717 0.828581
9 1 0.104456 0.57275 0.678375
10 1 0.0189493 0.678821 0.1651
11 1 0.150173 0.680586 0.327232
12 1 0.231977 0.578324 0.821045
13 1 0.105102 0.814248 0.656435
14 1 0.0162024 0.924374 0.172159
15 1 0.158461 0.950476 0.340424
16 1 0.231974 0.812233 0.806598
17 1 0.351881 0.0792426 0.671452
18 1 0.262545 0.189454 0.169419
19 1 0.396014 0.177333 0.310506
20 1 0.477691 0.0614863 0.825361
21 1 0.357259 0.315948 0.660797
22 1 0.271547 0.430739 0.187817
23 1 0.401799 0.438159 0.321437
24 1 0.477854 0.317194 0.827432
25 1 0.353841 0.566994 0.69436
26 1 0.271057 0.678279 0.175132
27 1 0.390516 0.675128 0.335974
28 1 0.474013 0.540674 0.828903
29 1 0.355201 0.822331 0.676662
30 1 0.268402 0.944591 0.165574
31 1 0.396679 0.923074 0.33413
32 1 0.476014 0.797952 0.843808
33 1 0.602457 0.0501085 0.686259
34 1 0.511077 0.196317 0.155776
35 1 0.646075 0.167906 0.320131
36 1 0.73305 0.0628139 0.833666
37 1 0.606822 0.321566 0.690204
38 1 0.526413 0.398457 0.181876
39 1 0.638629 0.456807 0.335396
40 1 0.726674 0.319423 0.820139
41 1 0.611018 0.568157 0.672123
42 1 0.513922 0.687915 0.186219
43 1 0.649252 0.699948 0.333008
44 1 0.7347 0.563765 0.840067
45 1 0.617848 0.812848 0.689237
46 1 0.516525 0.956562 0.192775
47 1 0.65362 0.933095 0.332862
48 1 0.725123 0.805102 0.823485
49 1 0.855375 0.0535255 0.648031
50 1 0.775986 0.19757 0.174079
51 1 0.894094 0.181505 0.335847
52 1 0.9841 0.0603119 0.799864
53 1 0.849662 0.314591 0.69463
54 1 0.781381 0.451105 0.151702
55 1 0.898095 0.446342 0.34208
56 1 0.98107 0.303593 0.832765
57 1 0.863461 0.552358 0.659787
58 1 0.774571 0.704021 0.172477
59 1 0.890517 0.6869 0.330041
60 1 0.976309 0.5713 0.82726
61 1 0.85413 0.806341 0.67685
62 1 0.768853 0.936786 0.171337
63 1 0.889291 0.942638 0.337791
64 1 0.978813 0.824796 0.830842
65 2 0.0425261 0.0682836 0.0214005
66 2 0.0839105 0.179898 0.498186
67 2 0.208609 0.187031 0.978724
68 2 0.162267 0.0601996 0.501378
69 2 0.0794143 0.0450137 0.288413
70 2 0.0526055 0.200029 0.778814
71 2 0.175696 0.179528 0.710915
72 2 0.192821 0.0762449 0.21375
73 2 0.0101693 0.0736754 0.605766
74 2 0.118544 0.186897 0.125145
75 2 0.242342 0.173663 0.360519
76 2 0.130096 0.0679007 0.877607
77 2 0.0472121 0.314717 0.0214534
78 2 0.0926075 0.442247 0.484747
79 2 0.209916 0.454208 0.981803
80 2 0.163489 0.31668 0.488901
81 2 0.0697302 0.305135 0.271382
82 2 0.0465184 0.441116 0.777283
83 2 0.169528 0.444843 0.710507
84 2 0.200898 0.32729 0.211422
85 2 0.00941623 0.322426 0.619442
86 2 0.120813 0.450371 0.109594
87 2 0.23961 0.432371 0.38527
88 2 0.134854 0.303676 0.872767
89 2 0.0459462 0.556955 0.0144101
90 2 0.0858569 0.676873 0.509684
91 2 0.21709 0.699003 0.986562
92 2 0.164678 0.566987 0.497514
93 2 0.0791533 0.569189 0.295287
94 2 0.0415065 0.689461 0.78499
95 2 0.173355 0.686534 0.71568
96 2 0.204095 0.562587 0.203682
97 2 0.996131 0.559669 0.619235
98 2 0.118373 0.702903 0.122862
99 2 0.244896 0.692618 0.36926
100 2 0.133192 0.560633 0.884068
101 2 0.0385405 0.821002 0.995608
102 2 0.0896931 0.928962 0.492365
103 2 0.211888 0.948826 0.011075
104 2 0.171648 0.812002 0.499443
105 2 0.0769857 0.831251 0.284054
106 2 0.0544645 0.94031 0.768374
107 2 0.170129 0.933481 0.708124
108 2 0.201234 0.811763 0.223934
109 2 0.015207 0.806 0.610671
110 2 0.114731 0.934864 0.107584
111 2 0.244287 0.948803 0.367858
112 2 0.132152 0.801808 0.886471
113 2 0.286602 0.0604791 0.000970652
114 2 0.34 0.200636 0.50742
115 2 0.460981 0.173749 0.979526
116 2 0.412193 0.0673136 0.494219
117 2 0.323706 0.0575735 0.264959
118 2 0.300703 0.195134 0.786536
119 2 0.423733 0.184827 0.713405
120 2 0.450474 0.0727413 0.21516
121 2 0.25199 0.0676746 0.629783
122 2 0.367843 0.197277 0.107266
123 2 0.492029 0.183157 0.38425
124 2 0.382714 0.0465239 0.88074
125 2 0.287877 0.312965 0.99729
126 2 0.328777 0.434154 0.511504
127 2 0.462553 0.44324 0.00548832
128 2 0.417953 0.309852 0.481995
129 2 0.329381 0.300034 0.300986
130 2 0.303553 0.434681 0.797883
131 2 0.4141 0.443642 0.704625
132 2 0.446384 0.316342 0.209815
133 2 0.257809 0.296734 0.623179
134 2 0.36086 0.41364 0.132019
135 2 0.498952 0.443021 0.37724
136 2 0.384943 0.290283 0.873912
137 2 0.293743 0.560421 0.0162927
138 2 0.33076 0.692149 0.514109
139 2 0.460466 0.67117 0.990823
140 2 0.420331 0.553382 0.474791
141 2 0.326162 0.544396 0.283891
142 2 0.305933 0.694909 0.77924
143 2 0.429627 0.68341 0.728548
144 2 0.459892 0.547658 0.212031
145 2 0.260383 0.561915 0.609894
146 2 0.360781 0.687289 0.123359
147 2 0.482271 0.698463 0.398034
148 2 0.391219 0.577319 0.895015
149 2 0.284434 0.818957 0.0151297
150 2 0.336803 0.937965 0.500961
151 2 0.461364 0.933892 0.0246183
152 2 0.41077 0.807827 0.52186
153 2 0.331707 0.811513 0.293657
154 2 0.304549 0.947737 0.775068
155 2 0.423569 0.949151 0.718208
156 2 0.451216 0.790194 0.222379
157 2 0.260088 0.812656 0.622163
158 2 0.367281 0.932019 0.106596
159 2 0.485143 0.914184 0.380481
160 2 0.383559 0.807439 0.892222
161 2 0.541762 0.0711848 0.00275489
162 2 0.578742 0.184804 0.501946
163 2 0.714118 0.175065 0.994977
164 2 0.661745 0.0554918 0.499591
165 2 0.570847 0.0819276 0.285395
166 2 0.555349 0.190364 0.780159
167 2 0.680018 0.187907 0.72264
168 2 0.696785 0.0529638 0.202175
169 2 0.510055 0.0665177 0.616526
170 2 0.617919 0.199096 0.118946
171 2 0.735172 0.189225 0.390576
172 2 0.631407 0.0395063 0.880276
173 2 0.543858 0.306718 0.0131052
174 2 0.589311 0.444003 0.516209
175 2 0.710136 0.439146 0.985719
176 2 0.668647 0.297364 0.494915
177 2 0.584983 0.309073 0.290128
178 2 0.542101 0.443962 0.789714
179 2 0.673658 0.44395 0.729828
180 2 0.706901 0.313502 0.207245
181 2 0.512272 0.29633 0.630277
182 2 0.618423 0.432076 0.119627
183 2 0.734752 0.442583 0.398539
184 2 0.638185 0.315299 0.887342
185 2 0.545892 0.558451 0.0342383
186 2 0.592761 0.688652 0.493859
187 2 0.703542 0.690941 0.998914
188 2 0.668107 0.565913 0.496727
189 2 0.571273 0.577434 0.272665
190 2 0.548049 0.68576 0.775948
191 2 0.681307 0.666514 0.721852
192 2 0.701907 0.547605 0.209346
193 2 0.511695 0.553077 0.609329
194 2 0.613317 0.687615 0.106311
195 2 0.739035 0.690036 0.380446
196 2 0.634688 0.554933 0.88356
197 2 0.537165 0.803009 0.0146812
198 2 0.588728 0.930787 0.50718
199 2 0.71109 0.934662 0.999711
200 2 0.664894 0.818002 0.499724
201 2 0.568409 0.805894 0.289568
202 2 0.538035 0.911638 0.785599
203 2 0.677245 0.95154 0.705322
204 2 0.704379 0.81579 0.216008
205 2 0.50319 0.811253 0.618414
206 2 0.602047 0.941545 0.118762
207 2 0.742617 0.941103 0.385348
208 2 0.635637 0.816505 0.891196
209 2 0.794113 0.0578061 0.0131595
210 2 0.83476 0.199535 0.502527
211 2 0.960908 0.1883 0.98743
212 2 0.921561 0.0549921 0.498148
213 2 0.826083 0.0708542 0.290803
214 2 0.803064 0.183902 0.772969
215 2 0.920105 0.183536 0.716238
216 2 0.946779 0.0588398 0.23586
217 2 0.76359 0.0550234 0.627544
218 2 0.862281 0.210458 0.107563
219 2 0.987098 0.195096 0.392996
220 2 0.888545 0.0593974 0.891167
221 2 0.789109 0.317002 0.00661767
222 2 0.825749 0.439042 0.51519
223 2 0.966269 0.453475 0.988357
224 2 0.905374 0.311524 0.518201
225 2 0.835093 0.322645 0.283491
226 2 0.796814 0.446275 0.785387
227 2 0.920248 0.4174 0.717042
228 2 0.946285 0.310568 0.226402
229 2 0.75988 0.309764 0.60404
230 2 0.872179 0.443898 0.112633
231 2 0.989923 0.417192 0.387045
232 2 0.886384 0.303485 0.894914
233 2 0.788817 0.568545 0.997892
234 2 0.835471 0.68194 0.508187
235 2 0.959594 0.701025 0.992771
236 2 0.911285 0.570145 0.488399
237 2 0.822354 0.556593 0.286688
238 2 0.796616 0.701538 0.770921
239 2 0.925019 0.694358 0.696289
240 2 0.959484 0.546345 0.228597
241 2 0.757237 0.561924 0.619189
242 2 0.863685 0.683235 0.107643
243 2 0.99688 0.684205 0.368302
244 2 0.888104 0.552285 0.85829
245 2 0.78744 0.802863 0.983742
246 2 0.828103 0.933938 0.517163
247 2 0.95901 0.95992 0.00280184
248 2 0.911888 0.826717 0.492296
249 2 0.822303 0.818663 0.291798
250 2 0.799813 0.938949 0.77821
251 2 0.920781 0.929648 0.726037
252 2 0.941715 0.810328 0.217175
253 2 0.758901 0.815543 0.623241
254 2 0.863585 0.95066 0.112906
255 2 0.991948 0.924077 0.382754
256 2 0.883245 0.809005 0.882612
257 3 0.0294611 0.0616158 0.421549
258 3 0.0843339 0.189875 0.945812
259 3 0.206945 0.189389 0.550968
260 3 0.15921 0.06493 0.0568206
261 3 0.0462207 0.318361 0.437262
262 3 0.0884205 0.435984 0.929406
263 3 0.211312 0.431311 0.570771
264 3 0.17308 0.322851 0.045167
265 3 0.038604 0.558429 0.443036
266 3 0.0806281 0.691468 0.937793
267 3 0.211336 0.680743 0.558378
268 3 0.162723 0.581451 0.0567076
269 3 0.0418945 0.810344 0.443383
270 3 0.0857162 0.93917 0.931807
271 3 0.214394 0.944808 0.557756
272 3 0.168528 0.827506 0.060221
273 3 0.289663 0.0588874 0.425839
274 3 0.336866 0.176402 0.937593
275 3 0.46426 0.184761 0.562274
276 3 0.414447 0.0696627 0.0565774
277 3 0.285625 0.291659 0.441907
278 3 0.339455 0.452569 0.951325
279 3 0.45886 0.432302 0.554005
280 3 0.413057 0.325722 0.0472509
281 3 0.286486 0.553236 0.432625
282 3 0.334847 0.695292 0.940755
283 3 0.46089 0.684498 0.573197
284 3 0.415822 0.566028 0.0716657
285 3 0.289699 0.818085 0.441336
286 3 0.332967 0.932766 0.942401
287 3 0.454748 0.940476 0.558926
288 3 0.412523 0.804822 0.068473
289 3 0.542129 0.0394808 0.442107
290 3 0.586007 0.190122 0.940017
291 3 0.71709 0.173522 0.563951
292 3 0.660211 0.0784832 0.0494388
293 3 0.542594 0.31912 0.435809
294 3 0.576328 0.43737 0.939552
295 3 0.705353 0.428271 0.567097
296 3 0.664691 0.316882 0.0536662
297 3 0.541269 0.585139 0.433923
298 3 0.58247 0.690179 0.94205
299 3 0.714575 0.687218 0.561073
300 3 0.662429 0.555466 0.0525025
301 3 0.53493 0.807978 0.449802
302 3 0.583289 0.924943 0.952081
303 3 0.714797 0.94277 0.551696
304 3 0.660625 0.810893 0.0658525
305 3 0.790047 0.0660323 0.44266
306 3 0.836562 0.175236 0.931869
307 3 0.963211 0.201157 0.568076
308 3 0.913471 0.0784378 0.074774
309 3 0.790342 0.316781 0.428483
310 3 0.843792 0.437246 0.925392
311 3 0.95631 0.429707 0.55191
312 3 0.917539 0.313243 0.0647495
313 3 0.785002 0.570271 0.441332
314 3 0.830574 0.681732 0.925146
315 3 0.960904 0.684252 0.538159
316 3 0.922192 0.56308 0.0797669
317 3 0.786188 0.813356 0.460843
318 3 0.835313 0.931827 0.93234
319 3 0.961997 0.929885 0.572929
320 3 0.90861 0.826455 0.0623616
ITEM: TIMESTEP
100
ITEM: NUMBER OF ATOMS
320
ITEM: BOX BOUNDS xy xz yz pp pp pp
-4.3336977114932651e-01 4.2293988966239695e+01 5.4717096869480931e-02
-3.3505488397583605e-01 1.9511433195431664e+01 6.9102098220877831e-02
-2.0465411912836728e-01 1.7965654119128367e+01 1.4378311455812963e-02
ITEM: ATOMS id type xs ys zs
1 1 0.101177 0.0693582 0.659033
2 1 0.00504877 0.173085 0.175143
3 1 0.137875 0.202764 0.330693
4 1 0.221207 0.0373575 0.818086
5 1 0.110735 0.314989 0.650066
6 1 0.0190122 0.436429 0.175025
7 1 0.148466 0.454019 0.311904
8 1 0.22839 0.323348 0.814826
9 1 0.0957298 0.572843 0.686494
10 1 0.0213386 0.688301 0.156287
11 1 0.151689 0.687367 0.32515
12 1 0.238324 0.577487 0.814003
13 1 0.106726 0.80576 0.653822
14 1 0.00764189 0.927336 0.171327
15 1 0.154425 0.938793 0.33695
16 1 0.231607 0.817721 0.818252
17 1 0.349529 0.082828 0.66061
18 1 0.263385 0.195888 0.130896
19 1 0.391525 0.175888 0.320202
20 1 0.486538 0.0513952 0.81846
21 1 0.35507 0.312835 0.67424
22 1 0.274819 0.414571 0.174153
23 1 0.400169 0.430677 0.321495
24 1 0.472745 0.309898 0.82541
25 1 0.349944 0.575223 0.685402
26 1 0.275402 0.688628 0.174725
27 1 0.385873 0.670184 0.344221
28 1 0.47187 0.545747 0.823336
29 1 0.358205 0.829437 0.686216
30 1 0.267533 0.943162 0.181815
31 1 0.399776 0.931419 0.337043
32 1 0.474278 0.799569 0.865307
33 1 0.592502 0.050301 0.678348
34 1 0.507823 0.183315 0.161795
35 1 0.654611 0.168483 0.329211
36 1 0.736103 0.0550522 0.845053
37 1 0.609145 0.324225 0.680437
38 1 0.528081 0.406074 0.194736
39 1 0.639918 0.457668 0.338758
40 1 0.737413 0.314616 0.821221
41 1 0.603559 0.572603 0.666996
42 1 0.512733 0.69066 0.173889
43 1 0.64802 0.694653 0.314146
44 1 0.734931 0.573207 0.842056
45 1 0.61816 0.79847 0.69203
46 1 0.518537 0.949652 0.200732
47 1 0.646096 0.931208 0.326102
48 1 0.719881 0.818739 0.833913
49 1 0.864632 0.0672565 0.657681
50 1 0.776765 0.20217 0.178681
51 1 0.894753 0.189974 0.355022
52 1 0.986492 0.0645975 0.798421
53 1 0.847439 0.317103 0.693667
54 1 0.779521 0.439274 0.150661
55 1 0.894929 0.441353 0.344408
56 1 0.983759 0.310648 0.831962
57 1 0.86201 0.555003 0.659564
58 1 0.774431 0.693758 0.162042
59 1 0.883978 0.692608 0.316845
60 1 0.973473 0.57551 0.824207
61 1 0.859204 0.811161 0.667093
62 1 0.774134 0.94638 0.166693
63 1 0.883623 0.942875 0.340917
64 1 0.980149 0.833573 0.835247
65 2 0.0466447 0.0634714 0.0239445
66 2 0.0770766 0.177678 0.480087
67 2 0.205159 0.170505 0.972634
68 2 0.166441 0.0641745 0.500861
69 2 0.0712311 0.0483762 0.28881
70 2 0.0500522 0.194788 0.785001
71 2 0.18058 0.186925 0.703386
72 2 0.188605 0.0869831 0.19416
73 2 0.012693 0.0699774 0.586635
74 2 0.119378 0.213748 0.0952807
75 2 0.233494 0.178359 0.383125
76 2 0.130005 0.0632924 0.874527
77 2 0.0447223 0.298554 0.0200945
78 2 0.0867902 0.44629 0.491851
79 2 0.207875 0.463357 0.972412
80 2 0.164327 0.323977 0.485524
81 2 0.0678236 0.321653 0.279238
82 2 0.0514641 0.446287 0.792064
83 2 0.174521 0.446705 0.714246
84 2 0.197596 0.315063 0.19013
85 2 0.0101849 0.333464 0.598597
86 2 0.129831 0.453236 0.0856073
87 2 0.239042 0.426478 0.406762
88 2 0.135311 0.311954 0.885926
89 2 0.0527593 0.562453 0.00859017
90 2 0.0796435 0.666913 0.501286
91 2 0.209812 0.701123 0.980394
92 2 0.175967 0.556742 0.502145
93 2 0.0743414 0.564378 0.295856
94 2 0.046795 0.695078 0.793346
95 2 0.179201 0.692018 0.696473
96 2 0.197702 0.562505 0.19541
97 2 0.996712 0.56003 0.598569
98 2 0.116917 0.712279 0.10579
99 2 0.240776 0.673102 0.385718
100 2 0.132421 0.58369 0.882951
101 2 0.0372576 0.822292 0.997136
102 2 0.0832309 0.934645 0.486773
103 2 0.209088 0.943257 0.0121629
104 2 0.169661 0.799828 0.479439
105 2 0.0829988 0.816553 0.290639
106 2 0.055223 0.940211 0.774623
107 2 0.175018 0.925491 0.684943
108 2 0.201938 0.818638 0.213649
109 2 0.00803029 0.802814 0.61119
110 2 0.114619 0.937705 0.0932952
111 2 0.247788 0.947334 0.385986
112 2 0.132415 0.81569 0.89861
113 2 0.290897 0.0650422 0.991242
114 2 0.334009 0.180544 0.492335
115 2 0.456241 0.188705 0.975056
116 2 0.415066 0.0621196 0.48691
117 2 0.327239 0.0604551 0.27245
118 2 0.298958 0.194645 0.791408
119 2 0.430822 0.187269 0.702597
120 2 0.44218 0.0603382 0.204443
121 2 0.256359 0.0797186 0.617755
122 2 0.367326 0.19607 0.0948977
123 2 0.50065 0.188455 0.403641
124 2 0.38391 0.0526854 0.898362
125 2 0.2993 0.314366 0.999854
126 2 0.322833 0.432933 0.507725
127 2 0.461374 0.443273 0.00706844
128 2 0.423255 0.302523 0.465579
129 2 0.320085 0.295566 0.305824
130 2 0.306286 0.445239 0.812863
131 2 0.426468 0.435752 0.703326
132 2 0.443129 0.307114 0.187656
133 2 0.252069 0.302682 0.61446
134 2 0.361489 0.41999 0.118175
135 2 0.505904 0.445541 0.401742
136 2 0.383879 0.297821 0.880993
137 2 0.294858 0.55387 0.0182646
138 2 0.327175 0.678008 0.516298
139 2 0.460733 0.660817 0.0155099
140 2 0.422615 0.541732 0.492211
141 2 0.328881 0.540797 0.299604
142 2 0.301673 0.705835 0.801198
143 2 0.422893 0.674398 0.729944
144 2 0.45806 0.534099 0.214801
145 2 0.261858 0.54311 0.620866
146 2 0.366287 0.683741 0.120165
147 2 0.484899 0.690736 0.410364
148 2 0.376873 0.576102 0.918859
149 2 0.290127 0.811268 0.00283673
150 2 0.333408 0.94819 0.505854
151 2 0.459719 0.930124 0.0300624
152 2 0.411851 0.79195 0.519391
153 2 0.321266 0.80531 0.294405
154 2 0.297454 0.950551 0.790055
155 2 0.42326 0.947679 0.712232
156 2 0.431758 0.795806 0.230957
157 2 0.259925 0.821893 0.592663
158 2 0.367145 0.927199 0.111293
159 2 0.48606 0.917318 0.408588
160 2 0.385295 0.817763 0.902356
161 2 0.544853 0.0678281 0.99571
162 2 0.578478 0.161997 0.508633
163 2 0.709506 0.181555 0.998793
164 2 0.666976 0.0668738 0.50547
165 2 0.564558 0.080387 0.292974
166 2 0.55409 0.185311 0.795765
167 2 0.678127 0.177766 0.711929
168 2 0.694869 0.0554047 0.186394
169 2 0.508802 0.0478353 0.606679
170 2 0.617929 0.1993 0.106929
171 2 0.744266 0.17949 0.377698
172 2 0.626351 0.0297534 0.893803
173 2 0.540967 0.29751 0.985731
174 2 0.583008 0.433939 0.513051
175 2 0.7092 0.443127 0.992289
176 2 0.664464 0.295389 0.506208
177 2 0.591113 0.299399 0.321241
178 2 0.551555 0.441881 0.78365
179 2 0.676683 0.443008 0.725799
180 2 0.709285 0.325801 0.200586
181 2 0.508814 0.306631 0.60467
182 2 0.61992 0.422235 0.11135
183 2 0.734282 0.437611 0.403275
184 2 0.62941 0.316303 0.894652
185 2 0.550491 0.557919 0.04294
186 2 0.588012 0.696738 0.510312
187 2 0.70063 0.699025 0.0105495
188 2 0.667575 0.566379 0.493323
189 2 0.578372 0.572157 0.292592
190 2 0.553319 0.680108 0.786633
191 2 0.683636 0.679601 0.714076
192 2 0.701153 0.550404 0.193842
193 2 0.509181 0.552288 0.59047
194 2 0.61682 0.69032 0.11396
195 2 0.738055 0.693563 0.380901
196 2 0.620957 0.557096 0.900869
197 2 0.536146 0.790603 0.0161819
198 2 0.582388 0.917776 0.513858
199 2 0.700975 0.934637 0.000292451
200 2 0.675475 0.817997 0.514169
201 2 0.569895 0.817553 0.306539
202 2 0.547544 0.913611 0.802321
203 2 0.689985 0.950155 0.712099
204 2 0.697034 0.807574 0.207438
205 2 0.500156 0.812722 0.616206
206 2 0.607055 0.940539 0.118307
207 2 0.747427 0.948875 0.372801
208 2 0.630217 0.804233 0.9039
209 2 0.79623 0.0612854 0.00902604
210 2 0.826693 0.190773 0.499974
211 2 0.961959 0.182347 5.18242e-05
212 2 0.926871 0.0527467 0.501796
213 2 0.81767 0.0717712 0.291438
214 2 0.800163 0.164909 0.791821
215 2 0.92595 0.178598 0.717412
216 2 0.945714 0.0545515 0.226892
217 2 0.767259 0.0536335 0.617009
218 2 0.867085 0.217875 0.101608
219 2 0.987849 0.206982 0.40214
220 2 0.885783 0.0532141 0.905285
221 2 0.798243 0.317532 0.977286
222 2 0.821072 0.436364 0.51116
223 2 0.965654 0.438706 0.981999
224 2 0.90146 0.311149 0.513027
225 2 0.82892 0.33326 0.287926
226 2 0.805193 0.446115 0.791854
227 2 0.934642 0.405517 0.709513
228 2 0.939695 0.31504 0.225496
229 2 0.755092 0.303675 0.59724
230 2 0.878929 0.455618 0.0942809
231 2 0.992806 0.419007 0.401722
232 2 0.888389 0.305041 0.897145
233 2 0.79557 0.572913 0.999289
234 2 0.82575 0.691823 0.50799
235 2 0.953892 0.706039 0.00523113
236 2 0.919039 0.572628 0.479026
237 2 0.82167 0.567525 0.303281
238 2 0.798013 0.677118 0.773877
239 2 0.932319 0.701812 0.685608
240 2 0.955345 0.548712 0.233921
241 2 0.756055 0.55598 0.607247
242 2 0.870842 0.690294 0.0865665
243 2 0.997853 0.684718 0.37283
244 2 0.88502 0.570307 0.86986
245 2 0.79047 0.803758 0.980325
246 2 0.828258 0.928641 0.508305
247 2 0.951078 0.964358 0.0137896
248 2 0.914276 0.81253 0.490699
249 2 0.819454 0.821721 0.310631
250 2 0.804058 0.939774 0.789019
251 2 0.925323 0.939772 0.715903
252 2 0.935073 0.808929 0.210063
253 2 0.75429 0.820526 0.628176
254 2 0.863517 0.953608 0.112318
255 2 0.988917 0.911565 0.402329
256 2 0.884226 0.804739 0.89251
257 3 0.0265056 0.0589382 0.412124
258 3 0.0848668 0.186059 0.955038
259 3 0.208611 0.177156 0.547011
260 3 0.152469 0.0745921 0.0538496
261 3 0.050534 0.317647 0.441577
262 3 0.0929058 0.437649 0.917137
263 3 0.213488 0.427508 0.571961
264 3 0.171871 0.344536 0.0308657
265 3 0.0387251 0.553251 0.445025
266 3 0.077915 0.695147 0.939647
267 3 0.213171 0.67981 0.556764
268 3 0.163365 0.600441 0.0466984
269 3 0.0493667 0.810052 0.430722
270 3 0.0859444 0.939969 0.924035
271 3 0.218945 0.953995 0.565499
272 3 0.169309 0.820614 0.0530423
273 3 0.299483 0.0596305 0.421275
274 3 0.335952 0.173446 0.935068
275 3 0.46882 0.185643 0.552749
276 3 0.41395 0.0665281 0.0516554
277 3 0.283231 0.284049 0.447859
278 3 0.344382 0.446049 0.959822
279 3 0.4679 0.431003 0.542432
280 3 0.414358 0.321428 0.0335479
281 3 0.285125 0.549484 0.431464
282 3 0.332506 0.698482 0.952084
283 3 0.462145 0.676755 0.585736
284 3 0.41451 0.561275 0.0850209
285 3 0.295409 0.826887 0.447446
286 3 0.327809 0.927898 0.94406
287 3 0.452487 0.949187 0.562191
288 3 0.412518 0.796146 0.0722069
289 3 0.539906 0.0367733 0.446145
290 3 0.592981 0.181326 0.937399
291 3 0.715666 0.16959 0.572412
292 3 0.657683 0.0776317 0.0443911
293 3 0.547082 0.318705 0.44971
294 3 0.577957 0.444041 0.944718
295 3 0.704018 0.415432 0.564315
296 3 0.672589 0.317833 0.060947
297 3 0.541337 0.597959 0.433497
298 3 0.578536 0.683222 0.93752
299 3 0.717642 0.690873 0.565529
300 3 0.66173 0.549365 0.0546175
301 3 0.536052 0.805728 0.462003
302 3 0.573507 0.92516 0.958626
303 3 0.713138 0.945316 0.552242
304 3 0.658475 0.823601 0.0715387
305 3 0.787687 0.080661 0.444301
306 3 0.834837 0.171646 0.931384
307 3 0.962828 0.209458 0.57861
308 3 0.914228 0.0865576 0.0808884
309 3 0.787144 0.325962 0.419308
310 3 0.84465 0.431745 0.927327
311 3 0.952031 0.423618 0.554196
312 3 0.924112 0.321285 0.0641277
313 3 0.779479 0.567173 0.447746
314 3 0.835356 0.679241 0.91272
315 3 0.961408 0.689915 0.519988
316 3 0.927919 0.580405 0.0893173
317 3 0.784005 0.803502 0.457594
318 3 0.836784 0.928705 0.929727
319 3 0.965621 0.927741 0.57777
320 3 0.90547 0.832034 0.0606675
ITEM: TIMESTEP
200
ITEM: NUMBER OF ATOMS
320
ITEM: BOX BOUNDS xy xz yz pp pp pp
-7.5302853414229001e-02 4.1869693340405071e+01 6.7916219382071624e-02
-4.1447097316811288e-01 1.9581359448691597e+01 -1.0325732391223318e-02
-1.4320348306673303e-01 1.7904203483066727e+01 4.8884755234396516e-03
ITEM: ATOMS id type xs ys zs
1 1 0.100278 0.0640053 0.653717
2 1 0.014913 0.175559 0.178399
3 1 0.141591 0.188117 0.324645
4 1 0.222895 0.0750534 0.804593
5 1 0.110681 0.321898 0.652162
6 1 0.016124 0.45106 0.179281
7 1 0.14296 0.454102 0.303993
8 1 0.231269 0.325665 0.821203
9 1 0.0961598 0.566299 0.676898
10 1 0.0232888 0.69716 0.15994
11 1 0.149556 0.685588 0.317507
12 1 0.236709 0.570482 0.819093
13 1 0.104439 0.800875 0.648592
14 1 0.00843639 0.933876 0.17877
15 1 0.142289 0.931475 0.32236
16 1 0.224895 0.82878 0.829961
17 1 0.354977 0.0674565 0.674252
18 1 0.263929 0.186201 0.122303
19 1 0.391362 0.193591 0.331415
20 1 0.489316 0.0497679 0.825789
21 1 0.351568 0.313626 0.678699
22 1 0.271999 0.424485 0.160252
23 1 0.395034 0.412416 0.332372
24 1 0.478553 0.31005 0.817499
25 1 0.350424 0.561479 0.663135
26 1 0.270677 0.685636 0.172669
27 1 0.385552 0.678707 0.366118
28 1 0.480007 0.56218 0.831714
29 1 0.354035 0.82097 0.69415
30 1 0.270778 0.940139 0.176664
31 1 0.389071 0.945781 0.343048
32 1 0.475124 0.805479 0.862524
33 1 0.596596 0.0467619 0.677884
34 1 0.515244 0.16443 0.159016
35 1 0.659024 0.181187 0.337858
36 1 0.730457 0.0500709 0.855745
37 1 0.608806 0.30741 0.670273
38 1 0.531364 0.431902 0.190998
39 1 0.654246 0.428598 0.338722
40 1 0.73963 0.304419 0.819402
41 1 0.601898 0.559498 0.662077
42 1 0.516807 0.67959 0.197112
43 1 0.643246 0.677597 0.317679
44 1 0.726562 0.569933 0.843366
45 1 0.608391 0.805601 0.685385
46 1 0.518708 0.923035 0.191503
47 1 0.638633 0.938859 0.326181
48 1 0.724619 0.8206 0.857798
49 1 0.863292 0.0715244 0.666664
50 1 0.775126 0.200427 0.162858
51 1 0.894696 0.189872 0.357361
52 1 0.986402 0.0661366 0.82402
53 1 0.853466 0.300346 0.677938
54 1 0.774475 0.438018 0.154555
55 1 0.888366 0.435997 0.33758
56 1 0.989994 0.313171 0.843734
57 1 0.860469 0.565311 0.661635
58 1 0.770841 0.679423 0.153427
59 1 0.885943 0.694442 0.31562
60 1 0.976413 0.574232 0.822666
61 1 0.859345 0.81677 0.661115
62 1 0.771923 0.942133 0.166709
63 1 0.88748 0.946473 0.342061
64 1 0.980933 0.826175 0.83603
65 2 0.0467618 0.0622312 0.0118413
66 2 0.0798638 0.164727 0.478887
67 2 0.199652 0.177719 0.971424
68 2 0.163532 0.0481578 0.48632
69 2 0.0649553 0.0612037 0.260057
70 2 0.0556077 0.185853 0.787906
71 2 0.170471 0.196747 0.705773
72 2 0.190363 0.0779238 0.196295
73 2 0.00627098 0.0601909 0.603557
74 2 0.124146 0.233797 0.100427
75 2 0.238645 0.178586 0.384836
76 2 0.129577 0.0520135 0.86607
77 2 0.0369844 0.302718 0.00251124
78 2 0.0874887 0.452367 0.520499
79 2 0.214602 0.466925 0.963815
80 2 0.168354 0.310056 0.487412
81 2 0.0784838 0.32274 0.285004
82 2 0.0486262 0.440497 0.785398
83 2 0.173313 0.44877 0.72379
84 2 0.197705 0.311166 0.185324
85 2 0.0112021 0.321755 0.602462
86 2 0.120357 0.454029 0.0918691
87 2 0.240912 0.417663 0.381233
88 2 0.129142 0.313727 0.87101
89 2 0.0450429 0.560559 0.00653682
90 2 0.0854827 0.681845 0.509086
91 2 0.211834 0.701528 0.97503
92 2 0.173554 0.555749 0.496464
93 2 0.0702378 0.559023 0.273201
94 2 0.0473255 0.702093 0.786373
95 2 0.177802 0.694506 0.707396
96 2 0.198851 0.577637 0.186798
97 2 0.00577177 0.554715 0.593865
98 2 0.112961 0.703936 0.103509
99 2 0.244278 0.672599 0.379374
100 2 0.127563 0.59271 0.873292
101 2 0.036827 0.82992 0.00781823
102 2 0.0772645 0.948067 0.497304
103 2 0.206884 0.953545 0.990626
104 2 0.170918 0.787846 0.485242
105 2 0.0836208 0.799569 0.27604
106 2 0.0495637 0.933177 0.773294
107 2 0.1747 0.924021 0.698804
108 2 0.201659 0.817133 0.197596
109 2 0.0111609 0.803764 0.603593
110 2 0.119036 0.933928 0.100603
111 2 0.245755 0.92361 0.402897
112 2 0.132613 0.8285 0.881809
113 2 0.288669 0.0544924 0.00156928
114 2 0.338096 0.182662 0.503111
115 2 0.453035 0.179194 0.995546
116 2 0.420997 0.0709188 0.487016
117 2 0.331716 0.0621971 0.264356
118 2 0.298552 0.18992 0.783652
119 2 0.430075 0.183737 0.692521
120 2 0.444912 0.0473002 0.224956
121 2 0.268126 0.0779268 0.596168
122 2 0.36935 0.177364 0.0982009
123 2 0.505226 0.184413 0.37866
124 2 0.379732 0.0524288 0.88305
125 2 0.297017 0.310972 0.996317
126 2 0.335492 0.402561 0.516027
127 2 0.457639 0.440339 0.986161
128 2 0.429069 0.301348 0.478734
129 2 0.311577 0.298089 0.274867
130 2 0.307364 0.449779 0.795571
131 2 0.436429 0.425751 0.693564
132 2 0.449123 0.296523 0.198326
133 2 0.260327 0.302313 0.620206
134 2 0.376924 0.428712 0.136943
135 2 0.508905 0.437586 0.381942
136 2 0.379389 0.325851 0.862228
137 2 0.294563 0.555966 0.0181134
138 2 0.322768 0.672012 0.505867
139 2 0.458113 0.672799 0.0207227
140 2 0.41251 0.551365 0.516945
141 2 0.320211 0.539991 0.296935
142 2 0.301131 0.711533 0.80621
143 2 0.416957 0.681221 0.731414
144 2 0.453479 0.540446 0.234951
145 2 0.258171 0.548312 0.621068
146 2 0.367066 0.674203 0.127229
147 2 0.487738 0.687045 0.396831
148 2 0.385693 0.572377 0.902512
149 2 0.280732 0.818989 0.0208802
150 2 0.340039 0.939927 0.517717
151 2 0.459057 0.929357 0.0127833
152 2 0.415538 0.788266 0.505897
153 2 0.318448 0.81083 0.281594
154 2 0.295707 0.938263 0.797551
155 2 0.420973 0.950623 0.73604
156 2 0.429326 0.799976 0.239838
157 2 0.25503 0.819945 0.613129
158 2 0.367314 0.925878 0.100964
159 2 0.49104 0.932983 0.39929
160 2 0.378929 0.815374 0.900675
161 2 0.533598 0.0610149 0.0106471
162 2 0.587028 0.151958 0.52189
163 2 0.708563 0.193814 0.985462
164 2 0.667436 0.0563968 0.496752
165 2 0.572014 0.0632923 0.288118
166 2 0.550642 0.181271 0.791196
167 2 0.674656 0.172377 0.721677
168 2 0.695823 0.0598884 0.203216
169 2 0.500504 0.0370316 0.619442
170 2 0.618122 0.199387 0.108007
171 2 0.743168 0.198099 0.36892
172 2 0.622427 0.0364124 0.876878
173 2 0.537115 0.290974 0.984264
174 2 0.591071 0.438985 0.521706
175 2 0.711998 0.441587 0.988861
176 2 0.660548 0.292153 0.512935
177 2 0.590301 0.30293 0.312932
178 2 0.555103 0.440033 0.791254
179 2 0.682373 0.437031 0.714404
180 2 0.707583 0.329086 0.214252
181 2 0.512309 0.310923 0.618734
182 2 0.618722 0.423558 0.107908
183 2 0.734264 0.436877 0.379602
184 2 0.629862 0.320564 0.903219
185 2 0.541672 0.554679 0.0469567
186 2 0.587405 0.704491 0.530286
187 2 0.705799 0.685637 0.00622126
188 2 0.670206 0.573874 0.505657
189 2 0.574738 0.572602 0.289178
190 2 0.545591 0.683444 0.792161
191 2 0.678637 0.688912 0.714392
192 2 0.702484 0.564276 0.205119
193 2 0.512381 0.561627 0.616991
194 2 0.619414 0.688902 0.119154
195 2 0.738212 0.687365 0.384868
196 2 0.627453 0.563778 0.880043
197 2 0.531512 0.804859 0.021942
198 2 0.586165 0.919023 0.528058
199 2 0.699551 0.943166 0.997958
200 2 0.67138 0.813647 0.499853
201 2 0.572962 0.820198 0.315066
202 2 0.55494 0.91871 0.793405
203 2 0.681614 0.946682 0.713663
204 2 0.70125 0.821696 0.215191
205 2 0.496634 0.804941 0.636917
206 2 0.616469 0.946643 0.131272
207 2 0.738087 0.946644 0.385486
208 2 0.616716 0.80021 0.900377
209 2 0.790117 0.0672857 0.00359159
210 2 0.829647 0.198874 0.511849
211 2 0.960715 0.182195 0.00566894
212 2 0.923203 0.0653062 0.497323
213 2 0.824777 0.0735705 0.282873
214 2 0.802326 0.173778 0.785662
215 2 0.935492 0.196157 0.728852
216 2 0.939619 0.0561586 0.236394
217 2 0.761166 0.0646648 0.609625
218 2 0.870921 0.210781 0.108606
219 2 0.990767 0.201126 0.399981
220 2 0.882379 0.0592356 0.897689
221 2 0.796759 0.316465 0.972904
222 2 0.828246 0.44152 0.50012
223 2 0.967196 0.447872 0.99746
224 2 0.912481 0.308018 0.510553
225 2 0.818153 0.328041 0.2775
226 2 0.807657 0.450621 0.784451
227 2 0.930421 0.43346 0.722187
228 2 0.945447 0.316593 0.22261
229 2 0.753972 0.310387 0.615616
230 2 0.881047 0.456712 0.0900138
231 2 0.993319 0.43179 0.38667
232 2 0.889145 0.311649 0.880494
233 2 0.801978 0.563419 0.00713763
234 2 0.823316 0.677946 0.51554
235 2 0.966353 0.70545 0.997917
236 2 0.913147 0.56808 0.476462
237 2 0.815983 0.565372 0.294409
238 2 0.806901 0.66896 0.762161
239 2 0.933511 0.690363 0.695591
240 2 0.946615 0.576482 0.237953
241 2 0.750819 0.545668 0.620281
242 2 0.869974 0.685033 0.0978429
243 2 0.000838157 0.697989 0.366572
244 2 0.887477 0.568143 0.878314
245 2 0.794232 0.813676 0.994013
246 2 0.832427 0.93436 0.506122
247 2 0.953983 0.943074 0.00598553
248 2 0.915387 0.811731 0.487075
249 2 0.812538 0.805067 0.289283