ITEM: TIMESTEP
0
ITEM: NUMBER OF ATOMS
320
ITEM: BOX BOUNDS xy xz yz pp pp pp
0.0000000000000000e+00 4.1736800000000002e+01 0.0000000000000000e+00
0.0000000000000000e+00 1.9161999999999999e+01 0.0000000000000000e+00
0.0000000000000000e+00 1.7760999999999999e+01 0.0000000000000000e+00
ITEM: ATOMS id type xs ys zs
1 1 0.10391 0.0625 0.6709
2 1 0.02109 0.1875 0.1709
3 1 0.14609 0.1875 0.3291
4 1 0.22891 0.0625 0.8291
5 1 0.10391 0.3125 0.6709
6 1 0.02109 0.4375 0.1709
7 1 0.14609 0.4375 0.3291
8 1 0.22891 0.3125 0.8291
9 1 0.10391 0.5625 0.6709
10 1 0.02109 0.6875 0.1709
11 1 0.14609 0.6875 0.3291
12 1 0.22891 0.5625 0.8291
13 1 0.10391 0.8125 0.6709
14 1 0.02109 0.9375 0.1709
15 1 0.14609 0.9375 0.3291
16 1 0.22891 0.8125 0.8291
17 1 0.35391 0.0625 0.6709
18 1 0.27109 0.1875 0.1709
19 1 0.39609 0.1875 0.3291
20 1 0.47891 0.0625 0.8291
21 1 0.35391 0.3125 0.6709
22 1 0.27109 0.4375 0.1709
23 1 0.39609 0.4375 0.3291
24 1 0.47891 0.3125 0.8291
25 1 0.35391 0.5625 0.6709
26 1 0.27109 0.6875 0.1709
27 1 0.39609 0.6875 0.3291
28 1 0.47891 0.5625 0.8291
29 1 0.35391 0.8125 0.6709
30 1 0.27109 0.9375 0.1709
31 1 0.39609 0.9375 0.3291
32 1 0.47891 0.8125 0.8291
33 1 0.60391 0.0625 0.6709
34 1 0.52109 0.1875 0.1709
35 1 0.64609 0.1875 0.3291
36 1 0.72891 0.0625 0.8291
37 1 0.60391 0.3125 0.6709
38 1 0.52109 0.4375 0.1709
39 1 0.64609 0.4375 0.3291
40 1 0.72891 0.3125 0.8291
41 1 0.60391 0.5625 0.6709
42 1 0.52109 0.6875 0.1709
43 1 0.64609 0.6875 0.3291
44 1 0.72891 0.5625 0.8291
45 1 0.60391 0.8125 0.6709
46 1 0.52109 0.9375 0.1709
47 1 0.64609 0.9375 0.3291
48 1 0.72891 0.8125 0.8291
49 1 0.85391 0.0625 0.6709
50 1 0.77109 0.1875 0.1709
51 1 0.89609 0.1875 0.3291
52 1 0.97891 0.0625 0.8291
53 1 0.85391 0.3125 0.6709
54 1 0.77109 0.4375 0.1709
55 1 0.89609 0.4375 0.3291
56 1 0.97891 0.3125 0.8291
57 1 0.85391 0.5625 0.6709
58 1 0.77109 0.6875 0.1709
59 1 0.89609 0.6875 0.3291
60 1 0.97891 0.5625 0.8291
61 1 0.85391 0.8125 0.6709
62 1 0.77109 0.9375 0.1709
63 1 0.89609 0.9375 0.3291
64 1 0.97891 0.8125 0.8291
65 2 0.040805 0.0625 0.0016
66 2 0.084195 0.1875 0.5016
67 2 0.209195 0.1875 0.9984
68 2 0.165805 0.0625 0.4984
69 2 0.074775 0.0625 0.28729
70 2 0.050225 0.1875 0.78729
71 2 0.175225 0.1875 0.71271
72 2 0.199775 0.0625 0.21271
73 2 0.0079775 0.0625 0.61449
74 2 0.117023 0.1875 0.11449
75 2 0.242023 0.1875 0.38551
76 2 0.132977 0.0625 0.88551
77 2 0.040805 0.3125 0.0016
78 2 0.084195 0.4375 0.5016
79 2 0.209195 0.4375 0.9984
80 2 0.165805 0.3125 0.4984
81 2 0.074775 0.3125 0.28729
82 2 0.050225 0.4375 0.78729
83 2 0.175225 0.4375 0.71271
84 2 0.199775 0.3125 0.21271
85 2 0.0079775 0.3125 0.61449
86 2 0.117023 0.4375 0.11449
87 2 0.242023 0.4375 0.38551
88 2 0.132977 0.3125 0.88551
89 2 0.040805 0.5625 0.0016
90 2 0.084195 0.6875 0.5016
91 2 0.209195 0.6875 0.9984
92 2 0.165805 0.5625 0.4984
93 2 0.074775 0.5625 0.28729
94 2 0.050225 0.6875 0.78729
95 2 0.175225 0.6875 0.71271
96 2 0.199775 0.5625 0.21271
97 2 0.0079775 0.5625 0.61449
98 2 0.117023 0.6875 0.11449
99 2 0.242023 0.6875 0.38551
100 2 0.132977 0.5625 0.88551
101 2 0.040805 0.8125 0.0016
102 2 0.084195 0.9375 0.5016
103 2 0.209195 0.9375 0.9984
104 2 0.165805 0.8125 0.4984
105 2 0.074775 0.8125 0.28729
106 2 0.050225 0.9375 0.78729
107 2 0.175225 0.9375 0.71271
108 2 0.199775 0.8125 0.21271
109 2 0.0079775 0.8125 0.61449
110 2 0.117023 0.9375 0.11449
111 2 0.242023 0.9375 0.38551
112 2 0.132977 0.8125 0.88551
113 2 0.290805 0.0625 0.0016
114 2 0.334195 0.1875 0.5016
115 2 0.459195 0.1875 0.9984
116 2 0.415805 0.0625 0.4984
117 2 0.324775 0.0625 0.28729
118 2 0.300225 0.1875 0.78729
119 2 0.425225 0.1875 0.71271
120 2 0.449775 0.0625 0.21271
121 2 0.257978 0.0625 0.61449
122 2 0.367023 0.1875 0.11449
123 2 0.492023 0.1875 0.38551
124 2 0.382978 0.0625 0.88551
125 2 0.290805 0.3125 0.0016
126 2 0.334195 0.4375 0.5016
127 2 0.459195 0.4375 0.9984
128 2 0.415805 0.3125 0.4984
129 2 0.324775 0.3125 0.28729
130 2 0.300225 0.4375 0.78729
131 2 0.425225 0.4375 0.71271
132 2 0.449775 0.3125 0.21271
133 2 0.257978 0.3125 0.61449
134 2 0.367023 0.4375 0.11449
135 2 0.492023 0.4375 0.38551
136 2 0.382978 0.3125 0.88551
137 2 0.290805 0.5625 0.0016
138 2 0.334195 0.6875 0.5016
139 2 0.459195 0.6875 0.9984
140 2 0.415805 0.5625 0.4984
141 2 0.324775 0.5625 0.28729
142 2 0.300225 0.6875 0.78729
143 2 0.425225 0.6875 0.71271
144 2 0.449775 0.5625 0.21271
145 2 0.257978 0.5625 0.61449
146 2 0.367023 0.6875 0.11449
147 2 0.492023 0.6875 0.38551
148 2 0.382978 0.5625 0.88551
149 2 0.290805 0.8125 0.0016
150 2 0.334195 0.9375 0.5016
151 2 0.459195 0.9375 0.9984
152 2 0.415805 0.8125 0.4984
153 2 0.324775 0.8125 0.28729
154 2 0.300225 0.9375 0.78729
155 2 0.425225 0.9375 0.71271
156 2 0.449775 0.8125 0.21271
157 2 0.257978 0.8125 0.61449
158 2 0.367023 0.9375 0.11449
159 2 0.492023 0.9375 0.38551
160 2 0.382978 0.8125 0.88551
161 2 0.540805 0.0625 0.0016
162 2 0.584195 0.1875 0.5016
163 2 0.709195 0.1875 0.9984
164 2 0.665805 0.0625 0.4984
165 2 0.574775 0.0625 0.28729
166 2 0.550225 0.1875 0.78729
167 2 0.675225 0.1875 0.71271
168 2 0.699775 0.0625 0.21271
169 2 0.507978 0.0625 0.61449
170 2 0.617023 0.1875 0.11449
171 2 0.742023 0.1875 0.38551
172 2 0.632977 0.0625 0.88551
173 2 0.540805 0.3125 0.0016
174 2 0.584195 0.4375 0.5016
175 2 0.709195 0.4375 0.9984
176 2 0.665805 0.3125 0.4984
177 2 0.574775 0.3125 0.28729
178 2 0.550225 0.4375 0.78729
179 2 0.675225 0.4375 0.71271
180 2 0.699775 0.3125 0.21271
181 2 0.507978 0.3125 0.61449
182 2 0.617023 0.4375 0.11449
183 2 0.742023 0.4375 0.38551
184 2 0.632977 0.3125 0.88551
185 2 0.540805 0.5625 0.0016
186 2 0.584195 0.6875 0.5016
187 2 0.709195 0.6875 0.9984
188 2 0.665805 0.5625 0.4984
189 2 0.574775 0.5625 0.28729
190 2 0.550225 0.6875 0.78729
191 2 0.675225 0.6875 0.71271
192 2 0.699775 0.5625 0.21271
193 2 0.507978 0.5625 0.61449
194 2 0.617023 0.6875 0.11449
195 2 0.742023 0.6875 0.38551
196 2 0.632977 0.5625 0.88551
197 2 0.540805 0.8125 0.0016
198 2 0.584195 0.9375 0.5016
199 2 0.709195 0.9375 0.9984
200 2 0.665805 0.8125 0.4984
201 2 0.574775 0.8125 0.28729
202 2 0.550225 0.9375 0.78729
203 2 0.675225 0.9375 0.71271
204 2 0.699775 0.8125 0.21271
205 2 0.507978 0.8125 0.61449
206 2 0.617023 0.9375 0.11449
207 2 0.742023 0.9375 0.38551
208 2 0.632977 0.8125 0.88551
209 2 0.790805 0.0625 0.0016
210 2 0.834195 0.1875 0.5016
211 2 0.959195 0.1875 0.9984
212 2 0.915805 0.0625 0.4984
213 2 0.824775 0.0625 0.28729
214 2 0.800225 0.1875 0.78729
215 2 0.925225 0.1875 0.71271
216 2 0.949775 0.0625 0.21271
217 2 0.757978 0.0625 0.61449
218 2 0.867023 0.1875 0.11449
219 2 0.992022 0.1875 0.38551
220 2 0.882978 0.0625 0.88551
221 2 0.790805 0.3125 0.0016
222 2 0.834195 0.4375 0.5016
223 2 0.959195 0.4375 0.9984
224 2 0.915805 0.3125 0.4984
225 2 0.824775 0.3125 0.28729
226 2 0.800225 0.4375 0.78729
227 2 0.925225 0.4375 0.71271
228 2 0.949775 0.3125 0.21271
229 2 0.757978 0.3125 0.61449
230 2 0.867023 0.4375 0.11449
231 2 0.992022 0.4375 0.38551
232 2 0.882978 0.3125 0.88551
233 2 0.790805 0.5625 0.0016
234 2 0.834195 0.6875 0.5016
235 2 0.959195 0.6875 0.9984
236 2 0.915805 0.5625 0.4984
237 2 0.824775 0.5625 0.28729
238 2 0.800225 0.6875 0.78729
239 2 0.925225 0.6875 0.71271
240 2 0.949775 0.5625 0.21271
241 2 0.757978 0.5625 0.61449
242 2 0.867023 0.6875 0.11449
243 2 0.992022 0.6875 0.38551
244 2 0.882978 0.5625 0.88551
245 2 0.790805 0.8125 0.0016
246 2 0.834195 0.9375 0.5016
247 2 0.959195 0.9375 0.9984
248 2 0.915805 0.8125 0.4984
249 2 0.824775 0.8125 0.28729
250 2 0.800225 0.9375 0.78729
251 2 0.925225 0.9375 0.71271
252 2 0.949775 0.8125 0.21271
253 2 0.757978 0.8125 0.61449
254 2 0.867023 0.9375 0.11449
255 2 0.992022 0.9375 0.38551
256 2 0.882978 0.8125 0.88551
257 3 0.0400975 0.0625 0.43797
258 3 0.0849025 0.1875 0.93797
259 3 0.209903 0.1875 0.56203
260 3 0.165098 0.0625 0.06203
261 3 0.0400975 0.3125 0.43797
262 3 0.0849025 0.4375 0.93797
263 3 0.209903 0.4375 0.56203
264 3 0.165098 0.3125 0.06203
265 3 0.0400975 0.5625 0.43797
266 3 0.0849025 0.6875 0.93797
267 3 0.209903 0.6875 0.56203
268 3 0.165098 0.5625 0.06203
269 3 0.0400975 0.8125 0.43797
270 3 0.0849025 0.9375 0.93797
271 3 0.209903 0.9375 0.56203
272 3 0.165098 0.8125 0.06203
273 3 0.290098 0.0625 0.43797
274 3 0.334903 0.1875 0.93797
275 3 0.459903 0.1875 0.56203
276 3 0.415098 0.0625 0.06203
277 3 0.290098 0.3125 0.43797
278 3 0.334903 0.4375 0.93797
279 3 0.459903 0.4375 0.56203
280 3 0.415098 0.3125 0.06203
281 3 0.290098 0.5625 0.43797
282 3 0.334903 0.6875 0.93797
283 3 0.459903 0.6875 0.56203
284 3 0.415098 0.5625 0.06203
285 3 0.290098 0.8125 0.43797
286 3 0.334903 0.9375 0.93797
287 3 0.459903 0.9375 0.56203
288 3 0.415098 0.8125 0.06203
289 3 0.540098 0.0625 0.43797
290 3 0.584902 0.1875 0.93797
291 3 0.709902 0.1875 0.56203
292 3 0.665098 0.0625 0.06203
293 3 0.540098 0.3125 0.43797
294 3 0.584902 0.4375 0.93797
295 3 0.709902 0.4375 0.56203
296 3 0.665098 0.3125 0.06203
297 3 0.540098 0.5625 0.43797
298 3 0.584902 0.6875 0.93797
299 3 0.709902 0.6875 0.56203
300 3 0.665098 0.5625 0.06203
301 3 0.540098 0.8125 0.43797
302 3 0.584902 0.9375 0.93797
303 3 0.709902 0.9375 0.56203
304 3 0.665098 0.8125 0.06203
305 3 0.790098 0.0625 0.43797
306 3 0.834902 0.1875 0.93797
307 3 0.959903 0.1875 0.56203
308 3 0.915098 0.0625 0.06203
309 3 0.790098 0.3125 0.43797
310 3 0.834902 0.4375 0.93797
311 3 0.959903 0.4375 0.56203
312 3 0.915098 0.3125 0.06203
313 3 0.790098 0.5625 0.43797
314 3 0.834902 0.6875 0.93797
315 3 0.959903 0.6875 0.56203
316 3 0.915098 0.5625 0.06203
317 3 0.790098 0.8125 0.43797
318 3 0.834902 0.9375 0.93797
319 3 0.959903 0.9375 0.56203
320 3 0.915098 0.8125 0.06203
ITEM: TIMESTEP
100
ITEM: NUMBER OF ATOMS
320
ITEM: BOX BOUNDS xy xz yz pp pp pp
0.0000000000000000e+00 4.1736800000000002e+01 0.0000000000000000e+00
0.0000000000000000e+00 1.9161999999999999e+01 0.0000000000000000e+00
0.0000000000000000e+00 1.7760999999999999e+01 0.0000000000000000e+00
ITEM: ATOMS id type xs ys zs
1 1 0.105452 0.073237 0.664893
2 1 0.0114143 0.195019 0.179603
3 1 0.138209 0.205143 0.321931
4 1 0.220155 0.0301866 0.837367
5 1 0.107949 0.307411 0.667039
6 1 0.0203436 0.428551 0.153813
7 1 0.151143 0.435833 0.327396
8 1 0.228023 0.314717 0.828581
9 1 0.104456 0.57275 0.678375
10 1 0.0189493 0.678821 0.1651
11 1 0.150173 0.680586 0.327232
12 1 0.231977 0.578324 0.821045
13 1 0.105102 0.814248 0.656435
14 1 0.0162024 0.924374 0.172159
15 1 0.158461 0.950476 0.340424
16 1 0.231974 0.812233 0.806598
17 1 0.351881 0.0792426 0.671452
18 1 0.262545 0.189454 0.169419
19 1 0.396014 0.177333 0.310506
20 1 0.477691 0.0614863 0.825361
21 1 0.357259 0.315948 0.660797
22 1 0.271547 0.430739 0.187817
23 1 0.401799 0.438159 0.321437
24 1 0.477854 0.317194 0.827432
25 1 0.353841 0.566994 0.69436
26 1 0.271057 0.678279 0.175132
27 1 0.390516 0.675128 0.335974
28 1 0.474013 0.540674 0.828903
29 1 0.355201 0.822331 0.676662
30 1 0.268402 0.944591 0.165574
31 1 0.396679 0.923074 0.33413
32 1 0.476014 0.797952 0.843808
33 1 0.602457 0.0501085 0.686259
34 1 0.511077 0.196317 0.155776
35 1 0.646075 0.167906 0.320131
36 1 0.73305 0.0628139 0.833666
37 1 0.606822 0.321566 0.690204
38 1 0.526413 0.398457 0.181876
39 1 0.638629 0.456807 0.335396
40 1 0.726674 0.319423 0.820139
41 1 0.611018 0.568157 0.672123
42 1 0.513922 0.687915 0.186219
43 1 0.649252 0.699948 0.333008
44 1 0.7347 0.563765 0.840067
45 1 0.617848 0.812848 0.689237
46 1 0.516525 0.956562 0.192775
47 1 0.65362 0.933095 0.332862
48 1 0.725123 0.805102 0.823485
49 1 0.855375 0.0535255 0.648031
50 1 0.775986 0.19757 0.174079
51 1 0.894094 0.181505 0.335847
52 1 0.9841 0.0603119 0.799864
53 1 0.849662 0.314591 0.69463
54 1 0.781381 0.451105 0.151702
55 1 0.898095 0.446342 0.34208
56 1 0.98107 0.303593 0.832765
57 1 0.863461 0.552358 0.659787
58 1 0.774571 0.704021 0.172477
59 1 0.890517 0.6869 0.330041
60 1 0.976309 0.5713 0.82726
61 1 0.85413 0.806341 0.67685
62 1 0.768853 0.936786 0.171337
63 1 0.889291 0.942638 0.337791
64 1 0.978813 0.824796 0.830842
65 2 0.0425261 0.0682836 0.0214005
66 2 0.0839105 0.179898 0.498186
67 2 0.208609 0.187031 0.978724
68 2 0.162267 0.0601996 0.501378
69 2 0.0794143 0.0450137 0.288413
70 2 0.0526055 0.200029 0.778814
71 2 0.175696 0.179528 0.710915
72 2 0.192821 0.0762449 0.21375
73 2 0.0101693 0.0736754 0.605766
74 2 0.118544 0.186897 0.125145
75 2 0.242342 0.173663 0.360519
76 2 0.130096 0.0679007 0.877607
77 2 0.0472121 0.314717 0.0214534
78 2 0.0926075 0.442247 0.484747
79 2 0.209916 0.454208 0.981803
80 2 0.163489 0.31668 0.488901
81 2 0.0697302 0.305135 0.271382
82 2 0.0465184 0.441116 0.777283
83 2 0.169528 0.444843 0.710507
84 2 0.200898 0.32729 0.211422
85 2 0.00941623 0.322426 0.619442
86 2 0.120813 0.450371 0.109594
87 2 0.23961 0.432371 0.38527
88 2 0.134854 0.303676 0.872767
89 2 0.0459462 0.556955 0.0144101
90 2 0.0858569 0.676873 0.509684
91 2 0.21709 0.699003 0.986562
92 2 0.164678 0.566987 0.497514
93 2 0.0791533 0.569189 0.295287
94 2 0.0415065 0.689461 0.78499
95 2 0.173355 0.686534 0.71568
96 2 0.204095 0.562587 0.203682
97 2 0.996131 0.559669 0.619235
98 2 0.118373 0.702903 0.122862
99 2 0.244896 0.692618 0.36926
100 2 0.133192 0.560633 0.884068
101 2 0.0385405 0.821002 0.995608
102 2 0.0896931 0.928962 0.492365
103 2 0.211888 0.948826 0.011075
104 2 0.171648 0.812002 0.499443
105 2 0.0769857 0.831251 0.284054
106 2 0.0544645 0.94031 0.768374
107 2 0.170129 0.933481 0.708124
108 2 0.201234 0.811763 0.223934
109 2 0.015207 0.806 0.610671
110 2 0.114731 0.934864 0.107584
111 2 0.244287 0.948803 0.367858
112 2 0.132152 0.801808 0.886471
113 2 0.286602 0.0604791 0.000970652
114 2 0.34 0.200636 0.50742
115 2 0.460981 0.173749 0.979526
116 2 0.412193 0.0673136 0.494219
117 2 0.323706 0.0575735 0.264959
118 2 0.300703 0.195134 0.786536
119 2 0.423733 0.184827 0.713405
120 2 0.450474 0.0727413 0.21516
121 2 0.25199 0.0676746 0.629783
122 2 0.367843 0.197277 0.107266
123 2 0.492029 0.183157 0.38425
124 2 0.382714 0.0465239 0.88074
125 2 0.287877 0.312965 0.99729
126 2 0.328777 0.434154 0.511504
127 2 0.462553 0.44324 0.00548832
128 2 0.417953 0.309852 0.481995
129 2 0.329381 0.300034 0.300986
130 2 0.303553 0.434681 0.797883
131 2 0.4141 0.443642 0.704625
132 2 0.446384 0.316342 0.209815
133 2 0.257809 0.296734 0.623179
134 2 0.36086 0.41364 0.132019
135 2 0.498952 0.443021 0.37724
136 2 0.384943 0.290283 0.873912
137 2 0.293743 0.560421 0.0162927
138 2 0.33076 0.692149 0.514109
139 2 0.460466 0.67117 0.990823
140 2 0.420331 0.553382 0.474791
141 2 0.326162 0.544396 0.283891
142 2 0.305933 0.694909 0.77924
143 2 0.429627 0.68341 0.728548
144 2 0.459892 0.547658 0.212031
145 2 0.260383 0.561915 0.609894
146 2 0.360781 0.687289 0.123359
147 2 0.482271 0.698463 0.398034
148 2 0.391219 0.577319 0.895015
149 2 0.284434 0.818957 0.0151297
150 2 0.336803 0.937965 0.500961
151 2 0.461364 0.933892 0.0246183
152 2 0.41077 0.807827 0.52186
153 2 0.331707 0.811513 0.293657
154 2 0.304549 0.947737 0.775068
155 2 0.423569 0.949151 0.718208
156 2 0.451216 0.790194 0.222379
157 2 0.260088 0.812656 0.622163
158 2 0.367281 0.932019 0.106596
159 2 0.485143 0.914184 0.380481
160 2 0.383559 0.807439 0.892222
161 2 0.541762 0.0711848 0.00275489
162 2 0.578742 0.184804 0.501946
163 2 0.714118 0.175065 0.994977
164 2 0.661745 0.0554918 0.499591
165 2 0.570847 0.0819276 0.285395
166 2 0.555349 0.190364 0.780159
167 2 0.680018 0.187907 0.72264
168 2 0.696785 0.0529638 0.202175
169 2 0.510055 0.0665177 0.616526
170 2 0.617919 0.199096 0.118946
171 2 0.735172 0.189225 0.390576
172 2 0.631407 0.0395063 0.880276
173 2 0.543858 0.306718 0.0131052
174 2 0.589311 0.444003 0.516209
175 2 0.710136 0.439146 0.985719
176 2 0.668647 0.297364 0.494915
177 2 0.584983 0.309073 0.290128
178 2 0.542101 0.443962 0.789714
179 2 0.673658 0.44395 0.729828
180 2 0.706901 0.313502 0.207245
181 2 0.512272 0.29633 0.630277
182 2 0.618423 0.432076 0.119627
183 2 0.734752 0.442583 0.398539
184 2 0.638185 0.315299 0.887342
185 2 0.545892 0.558451 0.0342383
186 2 0.592761 0.688652 0.493859
187 2 0.703542 0.690941 0.998914
188 2 0.668107 0.565913 0.496727
189 2 0.571273 0.577434 0.272665
190 2 0.548049 0.68576 0.775948
191 2 0.681307 0.666514 0.721852
192 2 0.701907 0.547605 0.209346
193 2 0.511695 0.553077 0.609329
194 2 0.613317 0.687615 0.106311
195 2 0.739035 0.690036 0.380446
196 2 0.634688 0.554933 0.88356
197 2 0.537165 0.803009 0.0146812
198 2 0.588728 0.930787 0.50718
199 2 0.71109 0.934662 0.999711
200 2 0.664894 0.818002 0.499724
201 2 0.568409 0.805894 0.289568
202 2 0.538035 0.911638 0.785599
203 2 0.677245 0.95154 0.705322
204 2 0.704379 0.81579 0.216008
205 2 0.50319 0.811253 0.618414
206 2 0.602047 0.941545 0.118762
207 2 0.742617 0.941103 0.385348
208 2 0.635637 0.816505 0.891196
209 2 0.794113 0.0578061 0.0131595
210 2 0.83476 0.199535 0.502527
211 2 0.960908 0.1883 0.98743
212 2 0.921561 0.0549921 0.498148
213 2 0.826083 0.0708542 0.290803
214 2 0.803064 0.183902 0.772969
215 2 0.920105 0.183536 0.716238
216 2 0.946779 0.0588398 0.23586
217 2 0.76359 0.0550234 0.627544
218 2 0.862281 0.210458 0.107563
219 2 0.987098 0.195096 0.392996
220 2 0.888545 0.0593974 0.891167
221 2 0.789109 0.317002 0.00661767
222 2 0.825749 0.439042 0.51519
223 2 0.966269 0.453475 0.988357
224 2 0.905374 0.311524 0.518201
225 2 0.835093 0.322645 0.283491
226 2 0.796814 0.446275 0.785387
227 2 0.920248 0.4174 0.717042
228 2 0.946285 0.310568 0.226402
229 2 0.75988 0.309764 0.60404
230 2 0.872179 0.443898 0.112633
231 2 0.989923 0.417192 0.387045
232 2 0.886384 0.303485 0.894914
233 2 0.788817 0.568545 0.997892
234 2 0.835471 0.68194 0.508187
235 2 0.959594 0.701025 0.992771
236 2 0.911285 0.570145 0.488399
237 2 0.822354 0.556593 0.286688
238 2 0.796616 0.701538 0.770921
239 2 0.925019 0.694358 0.696289
240 2 0.959484 0.546345 0.228597
241 2 0.757237 0.561924 0.619189
242 2 0.863685 0.683235 0.107643
243 2 0.99688 0.684205 0.368302
244 2 0.888104 0.552285 0.85829
245 2 0.78744 0.802863 0.983742
246 2 0.828103 0.933938 0.517163
247 2 0.95901 0.95992 0.00280184
248 2 0.911888 0.826717 0.492296
249 2 0.822303 0.818663 0.291798
250 2 0.799813 0.938949 0.77821
251 2 0.920781 0.929648 0.726037
252 2 0.941715 0.810328 0.217175
253 2 0.758901 0.815543 0.623241
254 2 0.863585 0.95066 0.112906
255 2 0.991948 0.924077 0.382754
256 2 0.883245 0.809005 0.882612
257 3 0.0294611 0.0616158 0.421549
258 3 0.0843339 0.189875 0.945812
259 3 0.206945 0.189389 0.550968
260 3 0.15921 0.06493 0.0568206
261 3 0.0462207 0.318361 0.437262
262 3 0.0884205 0.435984 0.929406
263 3 0.211312 0.431311 0.570771
264 3 0.17308 0.322851 0.045167
265 3 0.038604 0.558429 0.443036
266 3 0.0806281 0.691468 0.937793
267 3 0.211336 0.680743 0.558378
268 3 0.162723 0.581451 0.0567076
269 3 0.0418945 0.810344 0.443383
270 3 0.0857162 0.93917 0.931807
271 3 0.214394 0.944808 0.557756
272 3 0.168528 0.827506 0.060221
273 3 0.289663 0.0588874 0.425839
274 3 0.336866 0.176402 0.937593
275 3 0.46426 0.184761 0.562274
276 3 0.414447 0.0696627 0.0565774
277 3 0.285625 0.291659 0.441907
278 3 0.339455 0.452569 0.951325
279 3 0.45886 0.432302 0.554005
280 3 0.413057 0.325722 0.0472509
281 3 0.286486 0.553236 0.432625
282 3 0.334847 0.695292 0.940755
283 3 0.46089 0.684498 0.573197
284 3 0.415822 0.566028 0.0716657
285 3 0.289699 0.818085 0.441336
286 3 0.332967 0.932766 0.942401
287 3 0.454748 0.940476 0.558926
288 3 0.412523 0.804822 0.068473
289 3 0.542129 0.0394808 0.442107
290 3 0.586007 0.190122 0.940017
291 3 0.71709 0.173522 0.563951
292 3 0.660211 0.0784832 0.0494388
293 3 0.542594 0.31912 0.435809
294 3 0.576328 0.43737 0.939552
295 3 0.705353 0.428271 0.567097
296 3 0.664691 0.316882 0.0536662
297 3 0.541269 0.585139 0.433923
298 3 0.58247 0.690179 0.94205
299 3 0.714575 0.687218 0.561073
300 3 0.662429 0.555466 0.0525025
301 3 0.53493 0.807978 0.449802
302 3 0.583289 0.924943 0.952081
303 3 0.714797 0.94277 0.551696
304 3 0.660625 0.810893 0.0658525
305 3 0.790047 0.0660323 0.44266
306 3 0.836562 0.175236 0.931869
307 3 0.963211 0.201157 0.568076
308 3 0.913471 0.0784378 0.074774
309 3 0.790342 0.316781 0.428483
310 3 0.843792 0.437246 0.925392
311 3 0.95631 0.429707 0.55191
312 3 0.917539 0.313243 0.0647495
313 3 0.785002 0.570271 0.441332
314 3 0.830574 0.681732 0.925146
315 3 0.960904 0.684252 0.538159
316 3 0.922192 0.56308 0.0797669
317 3 0.786188 0.813356 0.460843
318 3 0.835313 0.931827 0.93234
319 3 0.961997 0.929885 0.572929
320 3 0.90861 0.826455 0.0623616
