LAMMPS (29 Sep 2021 - Update 2)
OMP_NUM_THREADS environment is not set. Defaulting to 1 thread. (src/comm.cpp:98)
  using 1 OpenMP thread(s) per MPI task
units	metal
atom_style atomic
dimension 3
newton off

boundary p p p

#read_data structure.data
read_data data.CPI
Reading data file ...
  triclinic box = (0.0000000 0.0000000 0.0000000) to (41.736800 19.162000 35.522000) with tilt (0.0000000 0.0000000 0.0000000)
  1 by 1 by 1 MPI processor grid
  reading atoms ...
  640 atoms
  read_data CPU = 0.006 seconds

variable        p_id world   1

variable        temperature equal 400.0
variable        temperature2 equal 400.0
variable        tempDamp equal 100.0 # approx 0.1 ps

variable        pressure equal 1.00
variable        pressureDamp equal 500.0

variable        seed world 1428


mass            1 132.905  # Cs
mass            2 126.900  # I
mass            3 204.199  # Pb


# allegro pair style
pair_style	nequip
pair_coeff	* * ./best.pth Cs I Pb

neighbor 1.0 bin
neigh_modify delay 5 every 1

#write_dump all custom output.dump id type x y z fx fy fz
#
variable freq equal 100
#variable dt equal 0.001

thermo          ${freq}
thermo          100
thermo_style    custom step temp pe ke etotal press lx ly lz xy xz yz
restart         ${freq} restart.0 restart.2
restart         100 restart.0 restart.2

#minimize 0.0 1.0e-3 100 10000

# NVT

dump            myDump1 all atom 100 out.0.lammpstrj
fix             1 all temp/csvr ${temperature} ${temperature} $(100.0*dt) ${seed}
fix             1 all temp/csvr 400 ${temperature} $(100.0*dt) ${seed}
fix             1 all temp/csvr 400 400 $(100.0*dt) ${seed}
fix             1 all temp/csvr 400 400 0.10000000000000000555 ${seed}
fix             1 all temp/csvr 400 400 0.10000000000000000555 1428
fix             2 all nve
timestep        0.002
velocity        all create ${temperature} ${seed} dist gaussian
velocity        all create 400 ${seed} dist gaussian
velocity        all create 400 1428 dist gaussian
run             1000
Neighbor list info ...
  update every 1 steps, delay 5 steps, check yes
  max neighbors/atom: 2000, page size: 100000
  master list distance cutoff = 9
  ghost atom cutoff = 9
  binsize = 4.5, bins = 10 5 8
  1 neighbor lists, perpetual/occasional/extra = 1 0 0
  (1) pair nequip, perpetual
      attributes: full, newton off
      pair build: full/bin/atomonly
      stencil: full/bin/3d
      bin: standard
Per MPI rank memory allocation (min/avg/max) = 4.161 | 4.161 | 4.161 Mbytes
Step Temp PotEng KinEng TotEng Press Lx Ly Lz Xy Xz Yz 
       0          400   -20437.746    33.038893   -20404.707    4142.4802      41.7368       19.162       35.522            0            0            0 
     100    296.93688   -20408.988    24.526165   -20384.462    4144.4882      41.7368       19.162       35.522            0            0            0 
     200    342.19931   -20400.621    28.264716   -20372.356    7561.0038      41.7368       19.162       35.522            0            0            0 
     300    401.07137   -20404.695    33.127385   -20371.568     8920.764      41.7368       19.162       35.522            0            0            0 
     400    393.46343     -20405.5    32.498991   -20373.001    5676.9527      41.7368       19.162       35.522            0            0            0 
     500    406.95354   -20405.473    33.613236   -20371.859    6399.1776      41.7368       19.162       35.522            0            0            0 
     600    409.13891   -20404.955    33.793742   -20371.161    8922.5157      41.7368       19.162       35.522            0            0            0 
     700    389.18872    -20403.27    32.145911   -20371.124     5448.272      41.7368       19.162       35.522            0            0            0 
     800    415.99775   -20406.301    34.360263   -20371.941    7790.5498      41.7368       19.162       35.522            0            0            0 
     900    413.70084   -20404.393    34.170545   -20370.222     6962.294      41.7368       19.162       35.522            0            0            0 
    1000     386.4856   -20404.797    31.922641   -20372.874    6748.8326      41.7368       19.162       35.522            0            0            0 
Loop time of 117.083 on 1 procs for 1000 steps with 640 atoms

Performance: 1.476 ns/day, 16.262 hours/ns, 8.541 timesteps/s
89.1% CPU use with 1 MPI tasks x 1 OpenMP threads

MPI task timing breakdown:
Section |  min time  |  avg time  |  max time  |%varavg| %total
---------------------------------------------------------------
Pair    | 116.95     | 116.95     | 116.95     |   0.0 | 99.88
Neigh   | 0.05965    | 0.05965    | 0.05965    |   0.0 |  0.05
Comm    | 0.010808   | 0.010808   | 0.010808   |   0.0 |  0.01
Output  | 0.027855   | 0.027855   | 0.027855   |   0.0 |  0.02
Modify  | 0.03035    | 0.03035    | 0.03035    |   0.0 |  0.03
Other   |            | 0.006608   |            |       |  0.01

Nlocal:        640.000 ave         640 max         640 min
Histogram: 1 0 0 0 0 0 0 0 0 0
Nghost:        2170.00 ave        2170 max        2170 min
Histogram: 1 0 0 0 0 0 0 0 0 0
Neighs:         0.00000 ave           0 max           0 min
Histogram: 1 0 0 0 0 0 0 0 0 0
FullNghs:      44142.0 ave       44142 max       44142 min
Histogram: 1 0 0 0 0 0 0 0 0 0

Total # of neighbors = 44142
Ave neighs/atom = 68.971875
Neighbor list builds = 30
Dangerous builds = 0
unfix           1
unfix           2
write_data      data.NVT
System init for write_data ...
undump          myDump1
reset_timestep  0

# NPT
dump            myDump3 all atom 100 out.1.lammpstrj
fix             1 all plumed plumedfile plumed.dat outfile plumed.log
fix             2 all temp/csvr ${temperature} ${temperature2} $(500.0*dt) ${seed}
fix             2 all temp/csvr 400 ${temperature2} $(500.0*dt) ${seed}
fix             2 all temp/csvr 400 400 $(500.0*dt) ${seed}
fix             2 all temp/csvr 400 400 1 ${seed}
fix             2 all temp/csvr 400 400 1 1428
fix             3 all nph tri ${pressure} ${pressure} $(500.0*dt)
fix             3 all nph tri 1 ${pressure} $(500.0*dt)
fix             3 all nph tri 1 1 $(500.0*dt)
fix             3 all nph tri 1 1 1
fix             4 all momentum 10000 linear 1 1 1
run             50000000
Per MPI rank memory allocation (min/avg/max) = 4.189 | 4.189 | 4.189 Mbytes
Step Temp PotEng KinEng TotEng Press Lx Ly Lz Xy Xz Yz 
       0     386.4856   -20404.797    31.922641   -20372.874    6748.8335      41.7368       19.162       35.522            0            0            0 
     100    373.14829   -20404.787    30.821016   -20373.966    706.95528    42.403467    19.583218    36.179807    -0.121294  0.033742499 -0.082486319 
     200    361.97137    -20404.25    29.897834   -20374.352    140.11533    42.305944    19.531299    35.844597  0.057568872  0.058087113  0.083107191 
     300    372.02301   -20404.801    30.728071   -20374.073   -1227.0778    42.424725    19.448863    36.151816  0.038583274  -0.17124566   0.14763908 
     400    380.89961   -20405.352    31.461254    -20373.89   -1414.3237    43.037784    19.515718    35.882121  0.020368879  -0.12244818  0.023286823 
     500    389.09616   -20405.174    32.138266   -20373.036    566.68962    42.396253    19.402291    35.971294 -0.016069206   0.13809907  0.077968307 
     600    377.31049   -20403.834    31.164802   -20372.669    37.545224    42.332818    19.511348    36.150146  0.070552607   0.15384111  0.021489121 
     700    393.31119   -20405.084    32.486416   -20372.598    1061.5141    42.321545    19.479089    35.898603 -0.0058583199  -0.22777731 -0.087387512 
     800    381.16923   -20403.758    31.483524   -20372.274    832.07762    42.383657    19.470669    35.946664 -0.002263377  -0.14831307   0.05924369 
     900    401.13103   -20404.523    33.132313   -20371.391    336.20133    42.482021    19.498683    35.939394 -0.035949487   0.15936949   0.20129864 
    1000    364.23043   -20402.066    30.084426   -20371.982   -908.60465    42.444114     19.52204    36.273716  0.086366961   0.11966532   0.18149717 
    1100     398.4267   -20405.562    32.908943   -20372.654    104.78659    42.422556    19.476505    35.930248 -0.0071024704  -0.15778319 -0.027389452 
    1200    380.97192    -20403.85    31.467227   -20372.382    232.52474    42.419677    19.510341    36.024823 0.0035138351  -0.25941434 -0.025397668 
    1300    387.10867   -20404.707    31.974105   -20372.733    394.46731    42.000886    19.497412    36.215003 0.0052962198 -0.094141131 -0.050707404 
    1400    386.82176   -20403.883    31.950407   -20371.932    215.35173    42.279379    19.551644    35.913331 -0.023328838    0.3617138   0.04075321 
    1500    379.59258   -20403.336    31.353297   -20371.983   -26.328765    42.624212    19.410327     36.16224 -0.073876714   0.45624868   0.38135475 
    1600    388.31266   -20405.113    32.073551    -20373.04    777.94716    42.455976     19.38368     35.90033 -0.040645454  -0.18462848 -0.0027696585 
    1700    384.82817    -20404.41    31.785742   -20372.624   -759.01975    42.255427    19.627435    36.168555  0.075654367  -0.46747084  -0.35778587 
    1800    385.99717    -20404.18    31.882298   -20372.297    134.83051       42.459    19.493152     35.86865  0.039727154  -0.24300593  -0.13828205 
    1900    400.42093   -20405.209     33.07366   -20372.135   -373.97318    42.425056      19.4686    36.117898  0.063338401   0.33680739  0.037049304 
    2000    405.96887   -20404.605    33.531905   -20371.074   -663.50983    42.128873    19.586301    36.224643    0.1045442   0.13603546  -0.12892229 
    2100    401.60035   -20404.854    33.171077   -20371.682     333.8872    42.374112    19.518649    35.821799 -0.048171438  0.078266442    -0.143863 
    2200    385.95124    -20402.27    31.878504   -20370.391   -1217.0408    42.899429    19.416943    36.206205 -0.051660624  0.036852218   0.10989863 
    2300    389.67027   -20402.061    32.185686   -20369.875   -419.72558    42.551808    19.441577    35.998853 -0.0016748704  -0.13669462 -0.012232337 
    2400    407.33353   -20404.049    33.644622   -20370.404   -627.34552    42.206743    19.647706    36.040145 -0.022193417 -0.086082177  0.026896647 
    2500    394.37654   -20403.078    32.574411   -20370.504    145.28448    42.255136     19.49829    36.045445  0.023279169   -0.1569129 -0.049498824 
    2600     400.0851   -20403.385    33.045922   -20370.339    679.17311    42.420952    19.426046    36.071173    0.1297747 -0.076121433   -0.2296923 
    2700    403.73577   -20402.949    33.347457   -20369.602    763.89359    42.578659    19.468146    35.958342  0.012568446  0.054300963 -0.074245121 
    2800    400.64821   -20401.299    33.092434   -20368.206     221.5414    42.159753    19.578855    36.024755   0.10589947   0.20221082   0.12174546 
    2900    409.95482   -20401.797    33.861134   -20367.936   -766.98218    42.335922    19.660893    36.113578 -0.036987288   0.31563344 -0.049803709 
    3000    425.31108   -20403.076    35.129518   -20367.947    1224.8453    42.348493    19.328573    36.143122  -0.12618591  0.097618837  -0.26641957 
    3100    386.71127    -20400.48     31.94128   -20368.539     474.4819    42.368981    19.504556    36.139429 -0.060969164  -0.14835692  -0.24390997 
    3200    411.37393   -20401.881    33.978348   -20367.903    736.13376    42.121251    19.634991    35.947861   0.11041446   -0.3307233 -0.026410347 
    3300    403.49656   -20401.385      33.3277   -20368.057   -679.13139     42.49971    19.538318    36.074572   0.02970169  0.068750884  0.085306335 
    3400    414.27434   -20402.787    34.217914   -20368.569   -365.55469    42.914967    19.414949    35.944965 -0.005590356   0.23697865 -0.073715098 
    3500    405.13372   -20402.322    33.462924   -20368.859   -328.01768    42.380493    19.446702     36.24937 -0.098002784  0.042486186  -0.15184821 
    3600     424.3658   -20402.797     35.05144   -20367.745   -25.343796    42.151102    19.622824    36.007974  0.048760455 -0.055281238     0.120653 
    3700    410.44809       -20401    33.901876   -20367.098    1.1085724    42.607714    19.574428     35.92548 -0.0074581716 -0.020389394   0.18900166 
    3800    416.99678   -20402.459     34.44278   -20368.016   -238.49223    42.689966    19.377257    36.094106 -0.016142436  -0.14097114  -0.12438695 
    3900     411.1993   -20402.721    33.963924   -20368.757   -465.96041     42.43374    19.523455    36.180499 0.0024002225  0.089159939  -0.22951295 
    4000    409.50833   -20402.414    33.824255    -20368.59   -393.14487    42.324881    19.659396    36.034148  0.053613597   0.10690743   0.22205033 
    4100    407.48481   -20402.734    33.657118   -20369.077    1425.4202    42.456752     19.39197    35.908491  -0.00266852  0.045559053   0.32975303 
    4200    390.62807     -20401.6    32.264798   -20369.335    309.36968    42.739786    19.508066    35.992284   0.08159885   0.30839558 -0.018171825 
    4300    396.58582   -20402.271    32.756892   -20369.515    684.76129    42.007175    19.574114    35.992396  -0.12060873   0.05136536  -0.34200382 
    4400    400.73078   -20403.523    33.099253   -20370.424   -605.74114    42.404775    19.586122    36.081819 -0.040885848  -0.12041962 -0.048450044 
    4500    379.09204   -20402.381    31.311954   -20371.069   -758.50298    43.096369    19.430808     35.91115  -0.08762177 -0.029768337   0.26806668 
    4600    388.63209   -20403.242    32.099935   -20371.142    270.61382    42.654864    19.337144    36.067311  0.010835051   0.26334869   0.18320916 
    4700    388.82646   -20402.596    32.115989    -20370.48    273.88706    42.308985     19.52676     36.14984  -0.06710771  0.056168682     -0.33244 
    4800    410.90146     -20404.6    33.939324    -20370.66    602.02714    42.230896    19.499876    35.988147  0.078881867  -0.22673203  -0.22078222 
    4900    416.06543    -20403.83    34.365853   -20369.464   -612.57035     42.53332    19.638354    35.792368  0.039033757  -0.19247944    0.1522516 
    5000    402.83321   -20402.438    33.272909   -20369.165   -186.96189    42.388731     19.46862    36.194363   0.08755156 -0.096321192   0.13504908 
    5100    417.01343   -20403.137    34.444156   -20368.693   -33.433186    42.107405    19.552906     36.17893 -0.088919704 -0.067702947 -0.027529188 
    5200    395.37468   -20402.035    32.656854   -20369.378   -240.44494    42.642357    19.615678    35.829018  0.039880595 -0.073306221   -0.1033359 
    5300    408.26763   -20402.814    33.721776   -20369.093    411.45437    42.895565    19.325742    35.916009 -0.081679231  0.047375774   0.06641322 
    5400    402.46587   -20402.752    33.242567   -20369.509    5.3026727    42.418142    19.496057    36.101537   0.02948343   0.29021524  0.059680654 
    5500    406.79235   -20402.799    33.599922   -20369.199    -31.56725    42.031057    19.583866    36.234031  -0.15439119  0.086013032  0.086510695 
    5600    417.89143   -20403.805    34.516676   -20369.288     357.5237    42.442751     19.38718    36.028666  0.086702297  0.017654306 -0.057428936 
    5700    403.12982   -20402.992    33.297408   -20369.695    -333.9212     42.58538    19.529139    35.999282   0.17926544  -0.30352065  0.022373891 
    5800    398.30118    -20403.34    32.898575   -20370.441    84.564512     42.16105    19.571877    36.116147 -0.025232803  -0.10095388   0.19914206 
    5900    382.67275    -20402.43     31.60771   -20370.822   -142.49507    42.403391    19.540793    36.013831  -0.26389232   0.49828087 -0.051395597 
    6000    403.57864   -20405.186    33.334479   -20371.851    75.249357    42.465899    19.503118    35.990421  0.057861852   0.44798538  -0.29066347 
    6100    384.42887   -20403.562    31.752761    -20371.81     377.5546    42.277067    19.486357    36.136858   0.11466703   0.39342011  -0.05519321 
    6200    378.78911   -20403.611    31.286933   -20372.324   -557.07794    42.252703    19.519703    36.259632  0.060851175  -0.42793257   0.21916669 
    6300    388.76834   -20403.326    32.111189   -20371.215   -730.49058    42.500564    19.481737    36.040601 -0.093651628  -0.32263546   0.14378562 
    6400    394.44687   -20403.777     32.58022   -20371.197   -706.43542    42.769398    19.481472    35.998328   0.08566445  0.069401085   0.16736362 
    6500    406.48409   -20404.346    33.574461   -20370.771    401.69267    42.573037    19.506138     35.85172 -0.015664864   0.44984893  -0.20782716 
    6600    400.07398    -20403.02    33.045003   -20369.975    313.16101     42.42398    19.459338    36.123636 -0.067252964   0.33261704  -0.13252482 
    6700    403.31851   -20403.424    33.312993   -20370.111   -244.90983     42.37054    19.492407    36.168372 -0.081254449  -0.25419807   0.06938121 
    6800    398.19395    -20402.99    32.889718   -20370.101   -1020.2524    42.524766    19.504359    36.078135  0.049240099  -0.46320191 -0.027472285 
    6900    403.37717   -20403.734    33.317838   -20370.417   -1184.7974    42.446338    19.588817    36.032713  0.075245219 -0.048760627   0.13121946 
    7000    386.72484   -20401.896    31.942402   -20369.954    157.56423    42.271373    19.491944    36.152897 -0.054036416   0.29942044  -0.10669719 
    7100     400.0457   -20402.592    33.042668   -20369.549    959.02776    42.604427    19.396578    36.111223 -0.049021089   0.29879124   -0.2357067 
    7200    395.18846   -20401.314    32.641473   -20368.673    1537.6183    42.366943    19.481626    35.947767  0.092450906  -0.13702318 -0.0044140167 
    7300    399.94286   -20401.184    33.034173   -20368.149    300.16158    42.378463    19.548199    36.014387 -0.039889896  -0.27896138   0.26659901 
    7400    423.86335   -20403.676     35.00994   -20368.666   -339.06286    42.583956    19.492558     36.06044  -0.11616126   0.12312548 -0.074984568 
    7500    416.94585   -20402.818    34.438573    -20368.38   -855.46114    42.664046    19.379278    36.213637  -0.11894897   0.25457895   -0.1776706 
    7600    396.46625   -20401.906    32.747015   -20369.159   -1457.9581    42.597276     19.57681    36.122719  0.069932354  0.013205999  -0.26538888 
    7700    398.81148    -20402.07    32.940725    -20369.13   -669.62893    42.269106    19.639358    36.011043  0.025614721  -0.22994872   0.21081915 
    7800    396.03039   -20403.238    32.711014   -20370.527    495.88988    42.227883    19.469839    36.195823 -0.049787344  -0.30585094   0.31339143 
    7900     393.2999   -20403.176    32.485483    -20370.69    968.28585    42.448618    19.482779     35.96081 -0.058692659 0.0018734619    -0.207099 
    8000    386.76805   -20403.801     31.94597   -20371.855     1020.383    42.384616    19.389039    36.137423   0.15942718   0.35280947  -0.20238085 
    8100    398.21957   -20403.143    32.891834   -20370.251    150.42496    42.624416    19.501976    35.948892 -0.059060312  0.056997527  0.037558727 
    8200    385.51855   -20402.648    31.842765   -20370.806    -281.8219    42.763693    19.454127    35.978122  0.018726347  -0.21098199    0.1644708 
    8300    394.77165   -20403.566    32.607046   -20370.959    235.79572    42.452598    19.412641    36.096617 -0.048620253 -0.057270325   0.15014236 
    8400    387.52695   -20401.693    32.008654   -20369.685   -361.90825    42.150304    19.641319    36.146539  0.061187294  0.020806828  -0.10844033 
    8500     398.1967   -20402.957    32.889945   -20370.067    724.96396    42.204024    19.467341    36.152193  0.026713901  -0.03881309  -0.10780985 
    8600    401.43095   -20402.893    33.157086   -20369.735    627.99729    42.470603    19.483761    35.999148 -0.058784051 -0.042413356  0.054525977 
    8700    403.98867   -20403.207    33.368346   -20369.839    122.79315    42.217105    19.582791    36.124737  -0.10415322  -0.11695344    0.1590918 
    8800    386.81726   -20401.799    31.950035   -20369.849   -126.10179    42.246566    19.554614    36.091896  0.093029054  0.045091176   0.20996474 
    8900    381.07938   -20402.248    31.476102   -20370.772   -1230.6746    42.805677     19.51088    36.002265   0.01756855 -0.084579773   0.14241632 
    9000    393.22039   -20404.109    32.478916    -20371.63    151.13469    42.537714    19.351599    36.132204 -0.057645561  -0.25583721  -0.47549073 
    9100     388.7764   -20403.688    32.111854   -20371.576     981.2789     42.05418    19.552122    36.172459 -0.088978899 -0.069089278  -0.19224002 
    9200    391.95647   -20404.031     32.37452   -20371.657    1069.2664     42.39296    19.515967      35.8635 0.0094148115   0.25877433   0.11980798 
    9300    380.87044   -20403.086    31.458844   -20371.627     1301.689    42.498948     19.43529    35.885479  0.059835241   0.16480441   0.19467078 
    9400    391.60007   -20404.541    32.345082   -20372.196    -261.4349    42.220281    19.567181    36.252196 -0.0082143957   0.10755138  0.022714226 
    9500    404.26473   -20405.225    33.391148   -20371.833   -230.29758    42.086011    19.547577    36.053924 -0.069225931  -0.11153927  -0.11049753 
    9600    381.14922   -20402.268    31.481871   -20370.786   -1526.1265     42.67674     19.51361    36.253176  0.094252654  -0.19290124  -0.25989314 
    9700    402.78946   -20403.826    33.269295   -20370.557    377.77489    42.548826    19.431103    35.864842  0.051145167   0.34026064    0.1020153 
    9800     395.0009   -20403.412    32.625982   -20370.786    516.61073    42.145449    19.539946    36.159218  0.061552397    0.3799816    0.1715528 
    9900    387.17042   -20403.148    31.979205   -20371.169    279.65832     42.31754    19.542198    36.034839 -0.023595781 0.0079035696  0.090411074 
   10000    386.87199   -20403.072    31.954555   -20371.118    654.67896    42.608531    19.351571    35.970937 -0.011675285  -0.17918047 -0.032967799 
   10100    372.69708   -20403.194    30.783748   -20372.411   -205.22244    42.712335    19.544434    35.980956  0.001287022  -0.24436911  -0.15079826 
   10200    803.28207   -20462.597    66.348876   -20396.248   -1994.5393    43.415786    21.190629     34.14097 -0.0054402681 -0.061556697 -0.055026514 
   10300    1583.1037   -20549.592    130.75998   -20418.832   -178.38429    41.662532    22.126628    33.393414  -0.10367214  0.073628955   -0.2212958 
   10400    1643.6046   -20579.136    135.75719   -20443.379   -711.60632    40.551243    22.560422    33.634895 -0.099544451   0.52104928   -0.7105074 
   10500    1563.2832   -20592.847    129.12286   -20463.725   -556.14441     39.65617    22.887726    33.954947  -0.28997625   0.71411885   -1.1017892 
   10600    1481.9409   -20605.173    122.40421   -20482.769   -208.36942    39.182865    22.768527    34.221039  -0.30122382  0.031129971   -1.3194218 
   10700    1372.6905   -20613.304    113.38043   -20499.923    681.59286    38.877813    22.794559    34.175783  -0.28252987   0.19198657   -1.4408481 
   10800     1331.864   -20624.971    110.00828   -20514.962    458.03188     38.88409    22.915071    34.076537  -0.67108807   0.71345018   -1.4033229 
   10900     1208.615   -20629.136    99.828254   -20529.307    -68.60446    38.592423    23.094699    34.087814  -0.34023389   0.80610141   -1.5501283 
   11000    1146.7667   -20638.708     94.71976   -20543.988    95.330303    38.329218    23.089356    34.188632  -0.36947423   0.61878378   -1.3509497 
   11100    1071.7758   -20646.567    88.525719   -20558.041    42.811592    38.280035     23.16643    34.079609  -0.15767286   0.76488309   -1.7051259 
   11200    1044.7696   -20654.975    86.295081    -20568.68   -7.8503187    38.062446    23.170715    34.206661  -0.52317284    0.9795717   -1.7426491 
   11300    951.30277   -20657.765    78.574977   -20579.191    778.17346    37.947207      23.0745    34.407719  -0.40152168    1.1798151    -2.072095 
   11400      894.034   -20662.541    73.844735   -20588.696    260.69966    37.880792    23.209489    34.322854  -0.38146417    1.0140884   -1.9270546 
   11500    895.19494   -20671.325    73.940624   -20597.384   -1015.2262     37.88208    23.258894    34.325306  -0.51582901   0.98468669   -2.0311634 
   11600    835.85774   -20670.723    69.039536   -20601.683   -44.895444    37.357009    23.345519     34.56104    -0.496943   0.84932998    -2.240535 
   11700    823.94206   -20678.034    68.055334   -20609.979    1265.6463    37.075601    23.351227    34.708061  -0.51887094   0.68123293   -2.0765382 
   11800    764.05801   -20681.108    63.109077   -20617.999   -97.505936    37.133073    23.430091    34.751869  -0.27601864   0.38445022   -2.5003812 
   11900    744.08335   -20688.032    61.459226   -20626.573   -653.50271    36.962164    23.429155    35.040196  -0.27469343 0.0085763653   -2.7973216 
   12000    728.19431   -20693.382    60.146835   -20633.235   -451.46958    36.907224    23.484302    35.111331  -0.20500488  -0.11942709   -3.3472054 
   12100    700.90821   -20695.877    57.893078   -20637.984   -424.08686    36.736382    23.577417     35.17799  -0.13472091  -0.31743672   -3.5305945 
   12200    722.83051   -20701.011      59.7038   -20641.307    71.673143    36.649787    23.546109    35.391926  -0.21257714  -0.58281241   -3.5586485 
   12300    677.08572   -20702.296    55.925406   -20646.371   -466.31249    36.617461    23.636158    35.305517  -0.25514435  -0.29536366   -4.1952327 
   12400    668.46076   -20705.843    55.213009    -20650.63    -252.4183     36.38888    23.733302     35.40306  0.035482351  -0.51032498   -4.3723967 
   12500    694.86046   -20712.604    57.393551   -20655.211    841.72534    36.245178    23.736768    35.571389   0.12511436  -0.78938795   -4.5477253 
   12600    682.91061   -20715.229    56.406526   -20658.822   -420.09543    36.201437     23.75383    35.781809  0.026675775   -1.6423096   -4.8302472 
   12700    687.29167   -20721.774     56.76839   -20665.005    -501.8288    36.000128    23.987081    35.633263  0.071298591    -1.826641   -4.9507892 
   12800    633.95332   -20721.279     52.36279   -20668.916   -391.76409    35.694722    23.985537     35.79091  -0.08389105   -2.4377573   -4.9821753 
   12900    654.93001   -20728.655    54.095407   -20674.559    354.79203     35.41947    24.078364    36.144058  -0.11374365   -3.2989464   -5.2856259 
   13000     669.5163   -20734.366    55.300194   -20679.066    261.93521    35.166792    24.223539    36.264818  -0.12862628   -4.1553859   -5.6049994 
   13100    673.10678   -20738.967    55.596757    -20683.37    237.02228    35.024797    24.300869    36.467433  -0.21150763   -4.1417893   -5.7943954 
   13200    642.06372   -20742.523    53.032686    -20689.49   -489.83114    34.970312    24.366354    36.626383 -0.022031414   -4.5916962   -6.0476909 
   13300    637.62632   -20746.156    52.666169    -20693.49   -871.47878    34.952558    24.418305    36.771306 -0.024968641   -4.8822737   -6.3206861 
   13400    584.99492   -20744.966    48.318961   -20696.647    -653.1717    34.916532    24.430189    36.779444  0.031994137   -5.2224829   -6.1985923 
   13500    589.70197   -20748.638    48.707751    -20699.93    1085.3834    34.670816    24.505475    36.837549  0.026931718   -5.7888005   -6.3025611 
   13600    557.80258   -20748.507    46.072949   -20702.434    238.10848    34.977894    24.485518    36.697538  -0.20068722   -5.9977525   -6.1293381 
   13700    575.43947   -20753.824    47.529708   -20706.294    607.47152    34.849655    24.575017     36.62227  -0.12005383   -5.8857927   -5.8758505 
   13800    540.88611   -20753.127    44.675696   -20708.451   -1902.8507    34.614852    24.628717    37.030085  0.050168832    -6.152717   -5.9706978 
   13900    554.78938   -20756.642    45.824068   -20710.818   -807.77893    34.695199    24.626837    36.880416 -0.00060299971   -6.2714667   -5.5107031 
   14000    529.05757   -20756.698    43.698691   -20712.999    1045.0019    34.743156    24.599342    36.590266  -0.22034742   -6.4213468   -5.2686943 
   14100    510.25154   -20757.161    42.145365   -20715.016   -816.17982    34.587862    24.601513    37.026854  -0.11683742    -6.531104    -5.460374 
   14200    489.15206   -20756.796    40.402607   -20716.393   -84.572099    34.777888    24.641183    36.693098 -0.056462668   -6.7754233   -5.2299193 
   14300    516.75989   -20761.329    42.682937   -20718.646    953.88788    34.713625    24.480579    36.815512   -0.2800724   -6.6589784   -5.3447706 
   14400    491.80802   -20760.003    40.621982   -20719.381   -549.72633    34.793731    24.742019    36.615175  -0.22219964   -6.8440407   -5.5552956 
   14500    457.99934   -20758.949    37.829478    -20721.12    234.60744    34.735754    24.696886    36.727768  0.091996962   -7.2891817   -5.5731386 
   14600     483.8793    -20763.01    39.967091   -20723.043    699.85775      34.7494    24.587053    36.771493  0.055935787   -6.9899737   -5.5105295 
   14700    480.60344   -20763.404    39.696514   -20723.708     228.9078    34.555147    24.715974    36.570778  -0.18925953   -7.0251458    -5.449653 
   14800    503.41015   -20766.763    41.580285   -20725.182   -1409.6754    34.913735    24.689223    36.625707  -0.04162537   -7.3779161   -5.3776716 
   14900    455.36535   -20764.966    37.611918   -20727.354   -278.42307    34.784019    24.729284    36.584567 -0.039330264   -7.6837563   -5.4068318 
   15000    453.54319   -20765.839    37.461412   -20728.378    559.55004    34.585644    24.632549    36.584639  -0.27135406   -7.3519897    -5.328627 
   15100    461.28534   -20768.047    38.100893   -20729.946   -97.520217    34.735286    24.621959    36.653618 -0.023718309   -7.3768883   -5.2978351 
   15200     445.7716    -20768.09    36.819501    -20731.27     39.16552    34.667607    24.666654    36.591393  0.033121739   -7.0309952   -5.4668043 
   15300    424.65341   -20767.743    35.075197   -20732.668   -588.14135    34.571982    24.663458    36.703664  -0.20824022   -7.0446275   -5.5658111 
   15400    450.36429   -20770.247    37.198844   -20733.048   -1909.9422    34.648899    24.566394    36.780775  -0.19428102   -6.8685714    -5.434346 
   15500    428.78695   -20770.086    35.416615    -20734.67     4621.256    34.478445    24.546035    36.522204  0.034352091   -7.2014938   -5.8285676 
   15600    436.13919   -20770.444     36.02389    -20734.42    -3688.496     34.71551    24.685024    36.672922 -0.020683919   -7.1710692   -5.8998769 
   15700     427.0636   -20771.447    35.274271   -20736.172    2672.5905    34.656536    24.606654    36.460124 -0.058812361   -7.0934935   -5.6909369 
   15800    400.90983   -20769.766    33.114043   -20736.652   -3218.8488    34.663083    24.672912    36.791156  -0.11241555   -7.0720756   -5.7925473 
   15900    426.51248   -20771.921     35.22875   -20736.693    1458.2871    34.571286    24.699315    36.683933  -0.11067205   -7.0896454    -5.998853 
   16000    430.87976   -20772.949    35.589476    -20737.36   -847.53586    34.573034    24.622634    36.680865 -0.0021017143   -7.3402983   -5.7691389 
   16100    422.61105   -20772.709    34.906503   -20737.802    824.82877    34.713315    24.586415     36.50176  -0.06733834   -7.2863028   -5.5584368 
   16200    410.58583   -20772.987    33.913253   -20739.073    624.49872     34.47885    24.708554    36.655331 -0.053238295   -7.5344294   -5.9436283 
   16300    407.26369   -20772.439    33.638854     -20738.8   -1468.8515    34.652147    24.670154    36.611192 -0.019086486   -7.4329189   -5.8274647 
   16400    412.84851   -20772.769    34.100145   -20738.669    2362.2558    34.705705    24.529476    36.551854  -0.12675281   -7.2066659   -5.5583959 
   16500     421.4278   -20773.031     34.80877   -20738.223   -1527.3831    34.526712    24.677352    36.722853  -0.12743146   -7.3485333   -5.6624423 
   16600    404.21664   -20771.803    33.387176   -20738.416    1252.3816    34.558507    24.652439    36.669042 -0.0091585218    -7.253835   -6.1047885 
   16700    412.73962   -20771.962    34.091151   -20737.871   -641.59027    34.699459    24.649065    36.424514   0.10125923   -7.2394544   -5.9981967 
   16800    402.86245   -20771.293    33.275324   -20738.018     790.7176    34.541849    24.609813    36.736888  0.018790682    -7.022902   -5.7989245 
   16900    407.00339   -20772.684    33.617354   -20739.067   -47.518294    34.669189    24.639711    36.776924  -0.20405784   -6.7899555   -5.8181948 
   17000     402.3436   -20772.652    33.232468    -20739.42    256.57982    34.620247    24.615948    36.616425 -0.016833876   -6.9520085   -5.6916978 
   17100    394.43643   -20771.561    32.579358   -20738.982    1439.2434     34.68609    24.538857    36.488907  -0.22168954   -7.0976029   -5.5122825 
   17200    399.79034   -20772.185    33.021575   -20739.164   -1206.4606    34.615138    24.664537    36.788217 -0.089458242   -7.1773416   -5.4371827 
   17300    400.86115   -20771.927    33.110022   -20738.817    462.32373    34.809271    24.506803    36.702217    0.1125699    -7.343108    -5.584335 
   17400    397.25303   -20772.204    32.812001   -20739.392    275.10103    34.613461    24.585231    36.601012  -0.24092286   -6.8196717   -5.7429013 
   17500    413.61645   -20773.256    34.163574   -20739.093   -509.18932    34.725955    24.557415    36.691407 -0.063560628   -7.1315438   -5.5600475 
   17600    401.59914   -20772.807    33.170978   -20739.636    102.86179    34.619366    24.677731    36.771871 -0.067823055   -7.2359711   -5.7407544 
   17700    408.23151    -20773.06    33.718793   -20739.341   -526.97933    34.615702    24.606542    36.620473  -0.15617488   -7.0517062   -5.7081523 
   17800    399.76983   -20772.656    33.019882   -20739.636    959.04221    34.635872    24.593278    36.637535 -0.025371616   -7.0268877   -5.9204545 
   17900    401.87132   -20772.693    33.193459   -20739.499   -1759.1883    34.748905    24.585779    36.732124  -0.09129617   -6.9804546    -6.007343 
   18000    399.86787   -20772.501     33.02798   -20739.473    485.36943     34.59713    24.556664    36.700214  -0.11056069   -7.1330841   -5.7433583 
   18100    413.03241   -20773.428    34.115334   -20739.313    1450.1146     34.70268    24.574043    36.336651   0.14456541   -7.0202706   -5.8393114 
   18200    403.39046   -20772.726    33.318936   -20739.407   -393.37213    34.727924    24.414033    36.745069  -0.12405702   -7.2044432   -5.9277319 
   18300    393.58607   -20773.432     32.50912   -20740.922    911.22967    34.691444    24.627747    36.407489  -0.12808131   -7.1566865   -5.7265012 
   18400    390.77261   -20773.053    32.276736   -20740.777   -1023.3371    34.650372    24.580434     36.57235 -0.073642772   -7.2385762   -5.4964814 
   18500    383.53775   -20772.138    31.679157   -20740.459   -5806.2843    34.847171    24.613455    36.579671  -0.10292691   -7.4053927   -5.4272209 
   18600    405.88149   -20774.467    33.524688   -20740.942    3805.8746    34.702993    24.594268     36.41093  -0.24186748   -7.3802731   -5.1360755 
   18700    387.17673   -20772.713    31.979726   -20740.733   -2153.7367    34.745021    24.693007    36.443684  -0.04139149   -7.5259153   -5.5367097 
   18800    415.00414   -20773.946    34.278193   -20739.668    1311.1896    34.547851    24.589888    36.408497 -0.043790902   -7.3822553   -5.5113753 
   18900    395.44897   -20773.502    32.662991   -20740.839    1463.4188    34.705307    24.655269    36.260342  -0.15113328   -7.2672103   -5.5298149 
   19000    394.35791   -20772.462    32.572872    -20739.89   -1938.0636    34.728807    24.677668    36.572616  -0.23817531   -7.5697334   -5.6711924 
   19100    400.83613   -20773.492    33.107955   -20740.384    1897.0321    34.711643    24.585421    36.539042     -0.19334   -7.3439475   -5.5698904 
   19200    395.18541   -20773.063    32.641221   -20740.421    -2256.681    34.618458    24.654561    36.575554  -0.14062581   -7.1528414   -5.4043984 
   19300    403.72483   -20774.053    33.346553   -20740.706     1816.922    34.596617    24.603759    36.339447  -0.17972814    -7.127949   -5.3260983 
   19400    377.78631   -20772.543    31.204104   -20741.339   -1279.0621    34.781124    24.635864      36.4474 -0.0060782164   -7.5008998   -5.6260532 
   19500    391.21728   -20773.656    32.313465   -20741.343   -1046.0678    34.764106    24.655355     36.48549 -0.023759948   -7.3188039   -5.7062207 
   19600    387.92368   -20773.526    32.041422   -20741.484    884.94908    34.710846    24.630359    36.355173  -0.15467149   -7.2822984   -5.3833617 
   19700    377.94395   -20773.084    31.217124   -20741.866   -40.061338    34.650656    24.739943    36.191391 -0.096843378   -7.0383732   -5.5876208 
   19800    387.26711   -20773.697    31.987192    -20741.71     913.1909    34.627566    24.607815    36.403913 -0.034875459    -7.330119    -5.748332 
   19900    390.66694   -20774.087    32.268008   -20741.819   -1546.1589     34.77679    24.737877      36.2364  -0.20821528    -7.477245   -5.7538954 
   20000     401.0905   -20773.871    33.128966   -20740.742    669.08712     34.59083    24.612764     36.52639 -0.071091751   -7.7608274   -5.5561615 
   20100    385.44166   -20773.826    31.836414    -20741.99    408.48934    34.718047    24.624989    36.257503 -0.029565144   -7.8464953   -5.8675909 
   20200    384.21186   -20772.838    31.734837   -20741.104   -1196.2212    34.518677     24.70114     36.54793  -0.11702399   -7.6481797   -6.0018973 
   20300    387.75232    -20773.06    32.027268   -20741.032    1330.5294    34.648784    24.583226    36.380928  0.039483391   -7.6550588   -5.7158952 
   20400    387.76145   -20772.884    32.028023   -20740.856   -961.29726     34.65425    24.642541    36.267075 -0.015209102   -8.0389118   -5.9041738 
   20500    386.72601   -20773.097    31.942498   -20741.154   -393.67264    34.766947    24.607019    36.125285   -0.1831187   -7.6508591   -5.5958369 
   20600     379.3755   -20772.659    31.335366   -20741.323    1086.0415    34.661997    24.588852    36.436818 -0.026966805   -7.8604618   -5.4929045 
   20700    390.98057   -20773.286    32.293913   -20740.992    -1816.569    34.824175    24.659823    36.210164  0.091121936   -7.5477322   -5.8381952 
   20800    379.92882   -20772.569    31.381069   -20741.188    2019.5043    34.402403    24.585902    36.531894 -0.086435429   -7.5182182   -5.8091767 
   20900    394.29648     -20773.5    32.567798   -20740.932   -123.46075    34.784081    24.646081    36.283265 -0.035481486   -7.5295918   -5.7169018 
   21000    416.71317   -20774.246    34.419355   -20739.827    1225.8953    34.525405    24.567487    36.409194   0.12571747   -7.6692917   -5.8485516 
   21100     412.1899   -20773.344    34.045745   -20739.298   -3376.3853     34.80656    24.642579    36.435164 -0.077807993   -7.5741443   -5.9911406 
   21200    411.05683   -20774.387    33.952157   -20740.435    1853.0742    34.517257    24.639041    36.435755 -0.049055787   -7.4002449   -5.8772879 
   21300    399.39982   -20773.537    32.989319   -20740.548   -465.28713    34.662363    24.614938    36.353176  0.055386455   -7.4718538   -5.8042792 
   21400    399.13189   -20773.978    32.967189   -20741.011   -96.184636    34.615967    24.561084    36.579797  -0.10906378   -7.2044979   -5.7501969 
   21500    376.51843   -20772.296     31.09938   -20741.197    303.27258    34.676055    24.539502    36.423525  -0.21291204   -7.2248262   -5.8832844 
   21600    400.58508   -20773.427    33.087219    -20740.34    399.47033    34.420702    24.599855    36.477957 0.0042861574    -7.141092   -5.7222548 
   21700    408.58127   -20774.097    33.747682   -20740.349    645.92981     34.65017    24.553855    36.212384  -0.14414154   -7.1509462   -5.4395783 
   21800    384.70884    -20772.83    31.775886   -20741.055     908.8838    34.451416    24.625853    36.459369   -0.1004803   -7.0285862   -5.8441546 
   21900     397.2695   -20773.813    32.813361   -20740.999   -841.43435    34.671605    24.678734    36.241056  0.071134705   -7.0098747   -5.6155296 
   22000    393.52762   -20774.323    32.504292   -20741.818    463.22399    34.480523    24.566702    36.460455  -0.15245929   -6.9477222   -5.9317825 
   22100    389.69971   -20774.123    32.188117   -20741.935   -1875.1082    34.704172    24.665225    36.275445  -0.17909271   -7.0784837   -5.9154849 
   22200    399.30099    -20774.47    32.981157   -20741.489    -2.499142    34.641808    24.552551    36.412569  0.094709269   -7.4189548    -5.666227 
   22300    402.94818   -20773.861    33.282404   -20740.578   -410.92906    34.661694    24.524016    36.349282   0.04479284   -7.5840567   -5.8613667 
   22400    413.03408   -20774.222    34.115472   -20740.107    171.72567     34.61312    24.642044    36.199096  -0.13786449    -7.551979   -5.6974386 
   22500     387.9176   -20773.191     32.04092    -20741.15    259.64354    34.679538    24.557165    36.341646  0.024340021   -7.8597462   -5.5106057 
   22600    388.64673   -20773.727    32.101145   -20741.626    374.36652    34.755873     24.48617    36.389073   0.24956646   -7.5983956    -5.919899 
   22700    384.85456   -20774.054    31.787922   -20742.266   -140.20186    34.599454    24.593598     36.37833  -0.11276531   -7.3560474   -5.7771556 
   22800    387.26138   -20773.443    31.986719   -20741.456    -1594.503    34.628121     24.62369    36.389145  -0.12461989    -7.668488   -5.6622263 
   22900    399.23551   -20773.924    32.975748   -20740.948    1036.4037    34.523863    24.670059    36.289189   0.11124494   -7.5383875   -6.0789904 
   23000    374.48199   -20771.601    30.931176    -20740.67    5075.6142    34.620694    24.567521    36.193982 -0.080711275   -7.5815822   -5.9738219 
   23100    381.70904   -20771.672    31.528111   -20740.144   -3601.9184    34.677199    24.693843    36.233362 -0.060484065   -7.4744912     -6.07234 
   23200    407.19739   -20773.488    33.633378   -20739.855    2379.3726    34.573066    24.642925    36.369312  0.006200211   -7.4498425   -5.9865443 
   23300    384.64237   -20771.883    31.770395   -20740.113   -367.91044    34.811035    24.489023    36.410896  0.040823292   -7.5630091   -5.9459594 
   23400    387.53541   -20771.457    32.009352   -20739.448   -1573.1032    34.724532     24.68125    36.378383   -0.0865838   -7.7381535   -5.9148401 
   23500    387.07659   -20770.979    31.971455   -20739.008     1668.807    34.587379    24.621215    36.348121 -0.014833298   -7.8345298   -5.9784671 
   23600    400.91821   -20771.236    33.114735   -20738.122    626.86196    34.670842    24.722855     36.34158   0.04215742   -7.7455785     -5.76101 
   23700    419.18463    -20771.13    34.623491   -20736.506    542.78466    34.465135    24.720857    36.276451  0.043275993   -7.6552004   -6.0156228 
   23800     418.7992   -20771.205    34.591655   -20736.613   -980.56332    34.748718    24.692421    36.255883 -0.088815999   -7.4749632   -6.0126273 
   23900    427.33749   -20771.878    35.296894   -20736.581   -431.71983    34.694496    24.770757     36.28213  0.075045587   -7.6741349   -5.6969995 
   24000    399.09951   -20770.492    32.964515   -20737.528   -828.41157    34.633528    24.657043    36.472472   0.15908561   -7.6062491   -5.7331876 
   24100    414.11099   -20771.163    34.204422   -20736.958    476.86632     34.70133    24.657332    36.191685  -0.11226376   -7.7240042   -5.6576127 
   24200     402.6074   -20770.529    33.254257   -20737.275    39.578506    34.619896    24.644974    36.444757  -0.12645068   -7.5153023   -5.8443892 
   24300    395.42468       -20770    32.660984   -20737.339    894.11613    34.832729    24.613345    36.190629 -0.050242967   -7.5158749    -5.926193 
   24400    417.01492   -20771.638    34.444278   -20737.194    14.906049    34.522494    24.808351    36.189077 -0.078498274   -7.5342008   -5.5480041 
   24500    411.39261   -20772.041    33.979891   -20738.061   -398.95337    34.737159    24.532376     36.34646 -0.024056567    -7.539105   -5.8009345 
   24600    405.88791     -20771.7    33.525218   -20738.174    961.52276    34.692977    24.681775    36.344765  0.034928391    -7.703088   -6.1999914 
   24700    387.14684   -20770.866    31.977258   -20738.889    600.36635    34.619213    24.653041    36.365013  0.082416612   -7.5486512   -5.7306924 
   24800    405.80876   -20771.371     33.51868   -20737.853   -287.47087    34.635501    24.685954    36.407532 0.0028029386   -7.8333198   -5.7395034 
   24900    397.56195    -20771.11    32.837517   -20738.273     477.8314     34.58467    24.717585    36.285984   0.12845066   -7.9245354    -5.778462 
   25000    399.77699   -20772.034    33.020473   -20739.013     467.4685    34.812044    24.599237    36.370195   0.19765104   -8.0584796   -6.0070574 
   25100    397.63574   -20772.127    32.843612   -20739.284   -807.11967     34.60778    24.800035    36.320541 -0.090535641    -7.801875    -5.830757 
   25200    404.27598   -20773.371    33.392077   -20739.979    616.92338    34.528685    24.644244    36.463446  0.016986556   -7.6171108   -5.6409121 
   25300    375.14798   -20770.699    30.986185   -20739.713   -975.20562    34.884029    24.467791    36.540884  0.097494709   -7.4301579   -5.7082723 
   25400    402.60839   -20772.309    33.254339   -20739.055    439.18317     34.62482     24.66661    36.289904 -0.035884463   -7.3262575   -5.7020387 
   25500     410.9576   -20772.294    33.943961    -20738.35   -1300.5508    34.588856    24.675877    36.452713 -0.040626775   -7.2601927    -5.670043 
   25600    395.37956   -20770.282    32.657258   -20737.624    169.79351    34.698727    24.646523    36.309397  0.027022458   -7.7265518   -6.1155517 
   25700    425.64538   -20772.953    35.157131   -20737.796    432.84815    34.664602    24.589297    36.310835   0.14654904   -7.4089434   -5.8638351 
   25800    413.87869    -20771.89    34.185234   -20737.705    -1144.795    34.615586    24.704798     36.29654   0.13760691   -7.7651816   -5.6822022 
   25900    429.36086   -20773.578    35.464019   -20738.114   -1526.7289    34.471616    24.587765    36.366295 0.0081251427   -7.3180284   -5.8148013 
   26000    430.23399   -20774.355    35.536137   -20738.819   -179.04993    34.653093    24.447947    36.535763  0.074008719   -7.6030893   -6.1292453 
   26100    414.91617   -20774.372    34.270927   -20740.101    1465.1523    34.514098    24.506869    36.536983  0.014892903   -7.4559227   -5.8642023 
   26200    423.25398   -20775.216    34.959607   -20740.256    -802.0268    34.444555    24.627075    36.435802 -0.039793114   -7.3663919   -5.8355404 
   26300    422.70284   -20774.775    34.914085   -20739.861    1048.4804    34.568833    24.554487    36.399339 -0.0038739341   -7.1921931   -5.9689262 
   26400     401.6083   -20773.365    33.171734   -20740.193   -1196.5489    34.731943    24.562532    36.380138  0.020833668   -7.2669682   -5.9317977 
   26500    420.43872    -20775.09    34.727075   -20740.362    1364.7651    34.518646    24.563428    36.439925 0.0055101541   -7.1144524   -5.9798643 
   26600    406.24407   -20774.168    33.554636   -20740.614   -742.44542    34.518026    24.605652    36.443401  0.093342701   -7.2969455   -5.6806879 
   26700    398.95194   -20773.699    32.952326   -20740.746    1404.3138    34.527972    24.572676    36.428684 -0.092134262    -7.447705   -6.1097775 
   26800    403.46472   -20775.066    33.325069   -20741.741    45.448462    34.750193    24.495511    36.396017   0.18406654   -7.3498168   -5.8098878 
   26900    406.81564   -20774.329    33.601846   -20740.728   -1336.5075    34.478271    24.644126    36.613774   0.14013617   -7.1761378    -6.007182 
   27000    399.98147   -20773.756    33.037363   -20740.719    1677.3022    34.538409    24.614421    36.282183 -0.026925787   -7.2506037   -6.0354259 
   27100    397.28335    -20774.09    32.814505   -20741.276   -606.64307    34.653917    24.583468    36.514002  -0.11794526   -7.2537187   -5.7696743 
   27200    395.33383   -20773.893     32.65348   -20741.239     884.8856    34.596086    24.643179    36.538236   0.02983419   -7.1611939   -5.9842879 
   27300    399.29582   -20774.531    32.980729    -20741.55    361.79421    34.507158    24.591704     36.53154   0.08415428    -7.183254   -5.9449422 
   27400    393.57539   -20773.865    32.508238   -20741.357   -127.18435    34.540826    24.631828    36.341193 -0.049895483   -7.0774903   -6.0133792 
   27500    381.17518   -20773.441    31.484015   -20741.957    2243.9384    34.485559    24.552166    36.400243 0.0065142519     -7.01144   -6.1677998 
   27600     396.6739   -20774.754    32.764167    -20741.99   -725.89096    34.708297    24.477246    36.522033 -0.098270065   -6.7489929   -5.8900018 
   27700    404.87143   -20775.098     33.44126   -20741.657    42.576723    34.560702    24.578865    36.554711  0.084938353   -6.8090123   -6.0998099 
   27800    405.36073   -20774.643    33.481675   -20741.161    369.52578    34.537602    24.666716    36.435307   0.15571599   -6.8409013    -6.150276 
   27900    403.37614    -20774.04    33.317753   -20740.723   -753.36829     34.57576    24.664156    36.466437 -0.097506263   -6.6313139   -5.7897636 
   28000    388.27105    -20772.14    32.070114    -20740.07   -5457.6494    34.702853    24.670414    36.669573  -0.15096139    -6.978082   -6.0196066 
   28100    400.21423    -20773.12    33.056588   -20740.063    4710.4621    34.547761    24.619202    36.347493  0.010896834   -6.9931147   -6.1766133 
   28200    401.08301   -20772.641    33.128347   -20739.512   -4190.3042    34.598686    24.662331    36.628975  0.081294771   -7.1005145   -6.2882458 
   28300    442.02293   -20774.605    36.509871   -20738.095    2230.8571    34.623414    24.605417    36.479485  -0.04703434   -7.2218637     -6.20166 
   28400    401.20082   -20771.838    33.138078   -20738.699   -1017.6585    34.580015    24.730784    36.433986 -0.053005078   -7.3735522   -6.0752621 
   28500    407.88869   -20772.501    33.690477    -20738.81    470.62897    34.805886    24.658446    36.310649  0.065680526   -7.2156932   -6.1156461 
   28600     393.4813   -20772.301    32.500466     -20739.8   -587.34827     34.54305    24.562611    36.687624  0.036170638   -7.2260518    -6.133706 
   28700     411.6746   -20773.487    34.003183   -20739.484   -282.48142    34.686533    24.555843    36.369827  0.050296102   -7.2113382   -6.0121685 
   28800    425.69461   -20774.965    35.161197   -20739.804    546.77448    34.671834    24.500423    36.624216 -0.068644377   -7.1627033    -6.107807 
   28900    391.50622   -20772.131     32.33733   -20739.794   -1047.3596     34.72072    24.616808    36.469571  -0.32766019   -7.1977058   -6.0487811 
   29000    414.57946   -20774.455    34.243116   -20740.212    1616.3461    34.549597    24.528892    36.454644  0.063483935   -7.2495464   -6.1127869 
   29100    412.42705   -20773.465    34.065333   -20739.399     -1631.71    34.813798    24.571897    36.467342  0.066165183   -7.1635737   -6.1938338 
   29200    415.66186    -20773.17     34.33252   -20738.837   -780.95693     34.72629    24.602589    36.425002 -0.010992677   -7.1452212   -6.2321189 
   29300    413.45352   -20772.959    34.150117   -20738.809    521.03485    34.711773    24.578172    36.400999  0.048882287   -7.4065216    -6.482106 
   29400    414.59191   -20773.447    34.244144   -20739.203    810.55353    34.600527    24.582139    36.392215 -0.083694884   -7.1129731   -6.3948131 
   29500    420.56176    -20774.18    34.737237   -20739.443   -70.445012    34.565616    24.588202    36.432431    0.1902397   -7.0386833   -6.5584955 
   29600     402.8526    -20772.84     33.27451   -20739.565    468.43643    34.791078    24.487733    36.469899  -0.10735325   -6.9374043   -6.2897928 
   29700    403.20955   -20772.889    33.303993   -20739.585   -592.11277    34.758929    24.557568    36.477724  -0.13142173    -7.132639   -6.2764269 
   29800    425.94977   -20774.053    35.182273   -20738.871    20.110239    34.872161     24.58323    36.183145   0.16864709   -7.0622917   -6.1902823 
   29900     411.2045   -20773.841    33.964354   -20739.876   -169.20809    34.598669    24.514556    36.527469  -0.25684595   -6.9948444   -6.4846651 
   30000    390.91631   -20773.004    32.288605   -20740.715   -308.05191    34.792522    24.587441    36.342915   -0.2681157   -7.0443953   -6.2637247 
   30100    400.26915   -20773.295    33.061124   -20740.234    1638.7642     34.51078    24.582499    36.448955   0.21164979   -7.0048845   -6.1629851 
   30200    382.29576   -20772.456    31.576572    -20740.88   -94.455424    34.677577    24.544385     36.50435  0.082210065   -6.7954082   -6.1991191 
   30300    387.24935   -20773.452    31.985724   -20741.467    307.76763    34.698543    24.526255    36.479725  -0.19885855   -6.4271569   -6.0525743 
   30400    402.03843   -20774.089    33.207262   -20740.881   -252.98277    34.613882     24.53425     36.33928 0.0080286377   -6.7877033   -6.1878035 
   30500    393.94476   -20774.495    32.538747   -20741.956   -3463.1554    34.702706    24.604809    36.397409   0.20159461   -7.1246965   -6.3943338 
   30600    414.61127   -20776.295    34.245743    -20742.05    3298.1115     34.65349    24.544065    36.315595 -0.050717439    -7.026558   -6.0834145 
   30700    405.13492   -20776.466    33.463023   -20743.003    34.726126    34.580702    24.478051    36.573898  0.036187888   -7.0722213   -6.0994321 
   30800    401.50506   -20775.679    33.163207   -20742.516    -219.9305    34.649892    24.598033    36.433398   0.11639427   -7.0559223   -6.3655881 
   30900    415.73643   -20776.648    34.338679   -20742.309    529.37754    34.621278    24.536572    36.438228 -0.031343326   -7.0277667   -6.3761356 
   31000    410.42672   -20775.414    33.900111   -20741.514   -1256.6538     34.72276    24.569055    36.290869  -0.11804809   -6.8973668   -6.1974579 
   31100    403.45332    -20774.78    33.324127   -20741.456    469.88584    34.700026    24.605664    36.214311  0.085789088   -6.7786088   -5.9191437 
   31200    410.24344   -20774.644    33.884973   -20740.759   -1442.0397    34.691519    24.584066     36.36668   0.10661501   -6.5067825   -6.0726374 
   31300    406.17133   -20773.995    33.548628   -20740.446    1607.4416    34.817634    24.540633    36.126799 -0.048191024    -6.478684   -6.3460345 
   31400    406.82113   -20773.307    33.602299   -20739.705   -724.72913    34.568923    24.502464    36.576404   0.17496164   -6.3601036   -6.3718439 
   31500    412.52381   -20773.419    34.073325   -20739.346    4020.7421    34.694538    24.577216    36.031135   0.13178187   -6.3787791    -6.171803 
   31600    402.89806   -20773.423    33.278265   -20740.145   -1531.7401    34.591589    24.515823    36.508749  -0.11001837   -6.0855821   -6.4217386 
   31700    437.20983   -20776.785    36.112322   -20740.673    1702.5182    34.687754    24.570497    36.152732  0.032125524    -6.414281   -6.4939547 
   31800    400.83804   -20774.042    33.108113   -20740.934   -1577.3116    34.760521    24.579505    36.413168  0.033777914   -6.6922769   -6.3964674 
   31900    395.39013   -20773.805    32.658131   -20741.147    2118.4488    34.730807    24.404084    36.322467  0.030004324   -6.6472275   -6.1221915 
   32000    419.89304   -20775.317    34.682003   -20740.635   -1201.8911    34.676566    24.509682    36.483422 -0.0038126857   -7.0027841   -6.3132981 
   32100    411.56906   -20774.585    33.994465    -20740.59    -269.3222    34.767957    24.544537    36.367194 -0.062058173   -7.0059741   -6.1706673 
   32200    408.66865   -20772.874    33.754899   -20739.119    1940.0647    34.588218    24.518555    36.319178  -0.12941831   -6.8500654   -6.2102534 
   32300    419.84609    -20773.57    34.678125   -20738.892   -720.86917    34.671383    24.610957    36.337345 -0.010555275   -7.0529506   -6.4187548 
   32400    420.54996   -20774.193    34.736263   -20739.456    91.445552    34.710915    24.522191    36.454954   0.05493047   -7.0644276   -6.1601993 
   32500    408.33608   -20772.925    33.727431   -20739.198    68.819761    34.778491    24.590166    36.258416 -0.021893582   -7.0245066   -6.2774417 
   32600    420.59266    -20774.02     34.73979    -20739.28    440.03308    34.623262    24.543126    36.575596  -0.10461267   -6.7075111   -6.6933516 
   32700    399.35562   -20771.765    32.985669   -20738.779    542.70673    34.839259    24.527825    36.393932 0.0087780556   -6.7441516    -6.211852 
   32800    437.94184   -20775.111    36.172784   -20738.938     609.5662    34.492351    24.559945    36.463478  0.085799987   -6.3651162   -6.2071587 
   32900    408.39249   -20773.749     33.73209   -20740.017   -46.122389     34.62242     24.58718    36.397913  0.051353077    -6.833216   -6.5240375 
   33000    401.80229   -20773.233    33.187757   -20740.046    621.74443     34.60393     24.42704    36.686793  0.017842115   -6.6829093    -6.336616 
   33100    411.65582   -20775.509    34.001631   -20741.508   -384.70014    34.785484     24.64302    36.230466 -0.088838895    -7.224426    -5.868344 
   33200    387.97282   -20775.609    32.045481   -20743.564   -81.642011    34.584173    24.614018    36.513944    0.1140038   -7.3845113   -6.0385803 
   33300     374.0046   -20774.462    30.891745   -20743.571   -548.61204    34.548999    24.554264    36.677862  0.010275473   -7.2618963   -6.5025127 
   33400    371.43821   -20775.468    30.679768   -20744.788     355.1442     34.65072    24.618168    36.261924 -0.033576195   -7.2772531   -6.1394939 
   33500    375.16914   -20775.029    30.987933   -20744.041   -2714.9479    34.706877    24.664667    36.678118  0.025939101   -7.1790904    -6.044605 
   33600    376.61897   -20775.506    31.107685   -20744.398    1397.5369    34.677553    24.637749    36.181658 -0.020644884   -7.4835726   -6.1712943 
   33700     369.2056   -20774.205    30.495361    -20743.71   -2640.8625    34.876935    24.607566    36.296873  -0.11877001   -7.4502081   -6.0112291 
   33800    385.70456   -20775.092    31.858129   -20743.234    167.18903    34.789938     24.57152    36.315257  -0.27336056   -7.2070028    -6.138492 
   33900    377.50252   -20774.839    31.180664   -20743.658   -510.95546     34.76454    24.693325    36.246575  -0.17926927   -7.4176235    -6.069446 
   34000    397.22361   -20775.025    32.809571   -20742.215    485.11857      34.6513    24.536301      36.4039 0.0050961529   -7.3952955     -5.88516 
   34100    393.21514    -20773.86    32.478483   -20741.381    1723.1892    34.853568    24.497549    36.323328 -0.010020103   -7.3250041   -6.4248166 
   34200    373.17093   -20771.994    30.822886   -20741.171   -136.77852    34.720441    24.655274    36.417244 -0.064237708    -7.387015   -6.7344356 
   34300    388.43766   -20773.665    32.083875   -20741.581    214.36923    34.919165    24.482784    36.292922 0.0039751499   -7.4158508   -6.2171177 
   34400    401.49567   -20774.371    33.162431   -20741.208   -92.356349    34.672455    24.583336    36.327915  0.023214448   -7.4503773   -5.9890795 
   34500    399.05739   -20774.968    32.961036   -20742.007    1210.1821    34.746055    24.565498     36.31132  -0.12286899   -7.3239465   -6.3461002 
   34600    375.32416    -20774.29    31.000737   -20743.289    440.28933    34.824108    24.518637    36.281382 -0.0044185746   -7.5846714     -6.66908 
   34700    383.70933   -20773.905    31.693329   -20742.211    -742.1563    34.834849    24.623272    36.202751 0.0045681625   -7.3577355   -6.1889743 
   34800    396.35992   -20774.908    32.738233    -20742.17   -478.11464    34.811165    24.615926    36.177258 -0.0016644218   -7.7025481   -6.1632202 
   34900    388.32639   -20773.563    32.074685   -20741.489   -1440.2651    35.036448    24.628429    36.136877  0.057985657   -7.5909018   -6.6195948 
   35000    396.33939    -20774.71    32.736537   -20741.973    123.51417    34.712835    24.563444    36.435435  -0.24174453   -7.7928399   -6.4629017 
   35100    373.29638   -20772.636    30.833248   -20741.802    -632.4236    34.822324    24.576274     36.40984  -0.21219941   -7.3837752   -6.4933575 
   35200     387.8358   -20772.904    32.034164   -20740.869    1381.0215    34.624741    24.570432    36.229906  0.077908105   -7.1478272   -6.7808977 
   35300    401.78527   -20774.014    33.186351   -20740.828    3049.3149    34.677563    24.458243    36.290976  0.014268044   -6.9288012   -6.7234247 
   35400     383.7605   -20773.791    31.697555   -20742.093   -909.14643    34.686213    24.665664    36.398399  0.010391124   -7.2359733   -6.4764694 
   35500    399.48533   -20774.174    32.996382   -20741.177    123.30304    34.754421    24.470878     36.31063 -0.032749324   -7.2917422   -6.4404359 
   35600    403.72111   -20775.273    33.346246   -20741.926    455.96308    34.750033    24.570213    36.198372  0.047029208   -7.4742965   -6.5935364 
   35700    414.32722   -20776.063    34.222282   -20741.841   -3186.6248    34.886779    24.619819    36.077277  0.099291889   -7.5540598   -6.2640529 
   35800    402.23941   -20774.506    33.223863   -20741.283    894.97682    34.849781    24.538801    36.077563  -0.07558772   -7.4777163   -6.5763419 
   35900    397.75819   -20773.767    32.853726   -20740.914   -316.01045    34.617689    24.598518    36.241796  -0.23963783   -7.2749175    -6.725944 
   36000    421.08931   -20775.298    34.780812   -20740.517    834.38445    34.768142    24.472264     36.18066 -0.061661468   -7.6073094   -6.7706137 
   36100    400.75994   -20773.724    33.101662   -20740.623   -1254.6394    34.705219    24.493412    36.382846   0.11512551   -7.3386487   -7.1149173 
   36200    413.05737    -20774.59    34.117396   -20740.473    81.293506    34.829536    24.493115    36.137665  0.050647321   -7.3106443   -7.0347606 
   36300     404.4413    -20773.76    33.405732   -20740.354    484.79223    34.896437    24.478443    35.888678  0.043351596   -7.2678028    -7.188425 
   36400    420.14547   -20773.846    34.702853   -20739.144   -160.87983     34.65342    24.517191    36.187055   0.15458751   -7.4981072   -7.5273235 
   36500    424.12035   -20773.851    35.031167    -20738.82   -382.63346     34.96526    24.481075    35.893031  0.054194708   -7.6163368   -7.3157473 
   36600    429.27896   -20773.544    35.457254   -20738.087   -649.52758    34.585267    24.570035    35.958898 -0.062174788   -7.4093828   -7.4153402 
   36700    432.61916   -20773.963    35.733145    -20738.23    979.68322    34.859655    24.656318    35.640159   0.05193125   -7.3923242   -7.4303844 
   36800    408.88234   -20772.615     33.77255   -20738.843    -1559.368    34.686817    24.501837    36.112417  -0.11341678   -7.8427535   -7.5008783 
   36900    425.06104   -20772.642    35.108866   -20737.533    1692.0181    34.751783    24.551104    35.692566  -0.07672144   -8.0462731   -7.4888379 
   37000      437.074   -20772.727    36.101103   -20736.626   -2326.5295    34.780846    24.623991    35.871017  -0.12573936   -8.1389868   -7.3063843 
   37100    453.01645   -20774.235    37.417906   -20736.817    1714.4683    34.839557    24.547693    35.613332  -0.23177135   -8.0709964   -7.5357257 
   37200    437.38047   -20774.183    36.126416   -20738.056   -1464.9314    34.779854    24.588844    35.701814  -0.11990101   -8.1449818   -7.6489731 
   37300     437.7198   -20775.081    36.154445   -20738.926    1031.5883    34.832236    24.560214    35.496716  -0.21673992    -8.307175   -7.5079866 
   37400    420.09697   -20774.547    34.698847   -20739.848    162.98732      34.7752    24.623915    35.562235   -0.2049626   -7.9015112   -8.0359509 
   37500    401.31639   -20774.802    33.147623   -20741.654   -1325.3663    34.806017    24.631781    35.692457   0.14276706   -8.0750347   -8.4288038 
   37600    405.62048   -20774.764    33.503129   -20741.261    1400.7123    34.727065    24.623702    35.636862  0.024174055   -8.0058006   -7.8158641 
   37700    399.09098   -20775.087    32.963811   -20742.123    -831.5508    34.669989    24.546038    35.687767  -0.16422817    -7.828434   -8.0920878 
   37800    403.06138   -20775.957    33.291754   -20742.666    532.74039    34.763118    24.588997    35.684706 -0.020615479   -8.0413095   -8.2362228 
   37900    426.58207   -20777.415    35.234498    -20742.18   -746.69179    34.890809    24.544923     35.75244 -0.060931944   -8.0722781   -7.7168152 
   38000     406.9839   -20776.258    33.615744   -20742.642    70.505272    34.833151    24.559039    35.705133   -0.0340485   -7.9061623    -7.892655 
   38100    429.29047    -20777.83    35.458205   -20742.372    5150.7848    34.504912    24.315235    35.487957 -0.015391549   -7.6009519    -7.821098 
   38200    434.00853   -20779.509    35.847903   -20743.661   -1941.1094    34.792648    24.516832    35.387726  -0.10614983   -7.7754734   -7.8519606 
   38300    428.78214   -20779.521    35.416218   -20744.105   -1211.4226    34.526883    24.597303    35.712511  -0.10446297   -7.5304837   -8.1170193 
   38400    431.00085   -20779.872    35.599477   -20744.273    2746.9115    34.804163    24.456844    35.438651 -0.070973273   -7.7138426    -8.241769 
   38500    414.91207   -20778.702    34.270589   -20744.431   -2039.1914    34.646703    24.603677    35.596039  0.030351549   -7.7165118   -8.1603065 
   38600    410.22979   -20778.217    33.883845   -20744.333   -1190.4451    34.785821    24.629723    35.249303  -0.03672135    -7.519204   -8.4303727 
   38700    419.16035   -20779.142    34.621485   -20744.521    2931.8932    34.643015    24.423765    35.513162 -0.092540983   -7.7479772   -8.0602329 
   38800    430.02192   -20779.434    35.518621   -20743.916   -1410.1293    34.685526     24.55513    35.453483 -0.097589886   -7.6815555   -7.9343234 
   38900    415.34863   -20779.506    34.306648     -20745.2   -248.08461    34.614797    24.620854    35.491289   0.03687602   -7.7320613   -8.1321588 
   39000    422.99487   -20778.528    34.938206    -20743.59    816.31116    34.716896    24.451684    35.538203 -0.089866155   -7.4845033   -7.6837131 
   39100    429.32864   -20779.887    35.461357   -20744.426   -1251.5789    34.684565    24.596461    35.518667  -0.16104683   -7.5036948   -7.9363453 
   39200     417.7154   -20778.809    34.502136   -20744.306     573.7042    34.596722     24.62995    35.442057 -0.037150987   -7.6624504    -8.031742 
   39300    425.36132   -20779.531    35.133668   -20744.397   -536.42488    34.776696     24.44259    35.601807  -0.10238201   -7.7656238   -8.0189685 
   39400    437.34021   -20779.173    36.123091    -20743.05    135.28757    34.767212    24.554318    35.494527  0.019679724    -7.513581   -7.9348205 
   39500    451.43864   -20780.085    37.287583   -20742.798   -689.71409    34.695847    24.621159    35.225388 -0.044010936   -7.8058603   -8.1116784 
   39600    444.92411   -20778.791      36.7495   -20742.041    477.86082     34.59942    24.523553     35.36204 -0.060153518   -7.3134309   -7.7924715 
   39700     439.9438   -20779.156     36.33814   -20742.818    -356.6876    34.645577    24.552415    35.443154   0.25961305   -7.4124152   -7.8116727 
   39800    429.61706   -20779.907     35.48518   -20744.422    275.16759    34.675226    24.614734    35.291922  0.060299434   -7.1093992   -7.9695529 
   39900    419.69477   -20778.743    34.665626   -20744.077    149.51057    34.635897    24.536099    35.488808  0.024186709     -7.22489   -8.2956603 
   40000    413.11537   -20777.758    34.122187   -20743.636    870.90007    34.534181    24.669582    35.391051   0.22361839   -6.9468797    -8.146663 
   40100    407.76936   -20777.245    33.680621   -20743.564   -356.54783    34.696673    24.645521    35.316038   0.16766776   -7.4829842   -7.8394907 
   40200    425.54761   -20778.817    35.149055   -20743.667    337.80229     34.61419    24.597088    35.384128   0.17624349   -6.9662551   -8.3217989 
   40300    415.29978   -20778.085    34.302613   -20743.782   -8122.0812    34.844644     24.78858    35.547431   0.14773291   -6.9364446   -8.4014399 
   40400    421.19596   -20778.582     34.78962   -20743.792    6808.5451    34.630881    24.590525    35.304063    0.1265046   -7.1096203   -7.9999016 
   40500    421.39863   -20779.993     34.80636   -20745.186   -3821.6166    34.656089    24.681132    35.508727    0.1557947   -7.3289607   -7.9999247 
   40600    407.14304   -20780.027    33.628889   -20746.398    1168.0826    34.738866    24.547222    35.555038   0.14099042   -7.2968231   -7.9602688 
   40700    395.45303   -20778.761    32.663326   -20746.098    1964.2326    34.575367    24.579703    35.454344  0.040697012   -7.1796067   -7.9352091 
   40800    410.34795   -20778.973    33.893605   -20745.079   -3198.3907    34.718288    24.653289     35.42574 -0.015551993   -7.2656471   -8.0976973 
   40900    404.45489   -20778.461    33.406854   -20745.054    3304.2509    34.661311    24.558668     35.40341   0.22313612   -7.2909107   -7.9833181 
   41000    402.30341     -20778.4    33.229148   -20745.171   -3215.2161    34.704754    24.610393    35.634071  0.089303009   -7.2877754   -8.1178391 
   41100    418.84348   -20779.931    34.595312   -20745.336    591.84576     34.79228    24.528271    35.554106  -0.13188693   -7.4133894     -8.03677 
   41200    406.42894   -20777.824    33.569906   -20744.254   -108.45822     34.67453    24.643898    35.554189  0.091486722   -7.2235101    -7.939404 
   41300    400.91826   -20778.179    33.114739   -20745.064   -2134.9002    34.681453    24.612957    35.664661   0.14406353   -7.2888374   -8.1982076 
   41400    398.22174    -20778.07    32.892014   -20745.178     732.7266    34.714838    24.506371    35.611706 -0.0086629391   -6.9477745   -8.2852103 
   41500    407.48551   -20778.091    33.657176   -20744.434   -1453.5045    34.621284    24.582722    35.754002   0.17677812   -7.3316133   -8.0710238 
   41600    416.26539   -20777.959     34.38237   -20743.576   -568.34275    34.721304    24.605103    35.656106    0.1072918    -7.147017   -8.1460682 
   41700    407.31074   -20777.461     33.64274   -20743.818   -1619.5645    34.786036    24.606185    35.524307  0.060228431   -7.2537579   -8.3369606 
   41800    419.91952   -20778.909    34.684191   -20744.225   -812.24039    34.562014    24.669149    35.681583   0.17666598   -6.9838501   -8.3394294 
   41900    407.57616   -20777.134    33.664663   -20743.469     636.4628    34.669957    24.622342    35.550284   0.24035742   -7.1428499   -7.9777728 
   42000    395.42054    -20776.88    32.660643   -20744.219   -2475.4371    34.595774    24.659588    35.794726  0.049758759   -7.3920899   -8.0057148 
   42100    398.78652    -20778.05    32.938663   -20745.111    1445.7382    34.788771    24.693703    35.323056 -0.048099373   -7.5685842   -7.9741558 
   42200    451.63395   -20782.929    37.303714   -20745.625   -119.30728    34.689298    24.649354    35.621242   0.11209414   -7.4872422   -8.0642873 
   42300    1116.2163   -20748.452    92.196378   -20656.256    8581.0657    35.166969    24.465109    35.552224  0.096125204   -8.0548978   -7.8635349 
   42400     959.0757   -20745.836    79.216999   -20666.619   -3120.7113    34.954008    24.689905    35.803276   0.11195231   -7.7334104   -7.6461515 
   42500    785.64654   -20740.193     64.89223   -20675.301     667.5063     34.86421    24.746482    35.658032 -0.051265684   -7.6796504   -7.7772068 
   42600    740.12277   -20742.378    61.132093   -20681.246     1096.697    34.881288    24.650193    35.933337  0.052649392    -7.615338   -7.8450454 
   42700    691.78705   -20743.525    57.139696   -20686.386   -2367.3274    34.874959    24.603976    35.857756   0.18193782    -7.612086   -8.0139905 
   42800    703.27984   -20748.867    58.088968   -20690.778    2042.4633    34.705822    24.730516    35.696427   0.01573186   -7.3358235   -8.2289837 
   42900    700.75237   -20753.949    57.880207   -20696.069    992.07077    34.719928    24.769466    35.633048   0.33361373   -7.4993319   -8.2462829 
   43000    612.23355   -20752.884    50.568797   -20702.315   -2195.4942    34.897771    24.763975    35.540368   0.25824944   -7.7154994   -8.3200301 
   43100    608.12592   -20756.477    50.229518   -20706.248    2535.8884    34.726242      24.6529    35.744689 -0.047618908   -7.1962928   -8.3671414 
   43200    566.60726   -20756.794    46.800192   -20709.994   -157.44007    34.743176    24.661765     35.91969   0.15395574   -7.3012046   -8.4730603 
   43300    587.06995   -20760.989    48.490353   -20712.499    585.91868    34.712578    24.690658    35.827219 -0.097817907   -7.1431918   -8.5525919 
   43400     547.1348   -20761.474     45.19182   -20716.282   -790.36514    34.709174    24.724109    35.759442  0.064147954   -6.8569184   -8.5445082 
   43500    547.18658   -20763.944    45.196097   -20718.747   -71.553099    34.941449    24.615985    35.591057 -0.032072059   -7.1389923   -8.2152725 
   43600    531.13468   -20765.966    43.870255   -20722.095    96.253582    34.847411     24.53222    35.682355 -0.074632395    -7.337354   -7.6763549 
   43700    496.16394    -20764.54    40.981768   -20723.558    336.41935    34.908338    24.622533    35.572655   0.19729196   -6.9680283   -7.9940066 
   43800    507.28553   -20768.041    41.900381   -20726.141   -10.845053    34.906574    24.628215    35.650631    0.1423297   -7.2434033   -7.8710134 
   43900    472.29291   -20768.271    39.010087   -20729.261   -733.18999    34.755396    24.612426     35.79074   0.24108884   -7.2689782   -7.8151162 
   44000    480.31232   -20768.761    39.672469   -20729.089    1660.0134    34.833006    24.603803    35.604524   0.17439033   -7.0771281   -7.7914049 
   44100    465.66459   -20768.801    38.462607   -20730.339   -1298.7571    34.719425    24.618311    35.836963  0.095849415   -7.1395584   -7.4767693 
   44200    464.42658   -20768.595     38.36035   -20730.234    812.51411    34.509917      24.6856    35.885877  0.038849636   -6.8424723   -7.6909432 
   44300    468.06779   -20768.178    38.661104   -20729.517   -1880.9759    34.695161    24.745912    36.001267  0.035973854   -7.0136673   -7.9395848 
   44400     463.8651   -20768.836    38.313974   -20730.522    1512.9881    34.825879    24.594639    35.709949  0.080473288   -7.2394356   -7.9185301 
   44500    472.71606   -20770.241    39.045038   -20731.196   -989.38026    34.697838    24.733042    35.529001   0.14183825   -7.1800448   -8.3645558 
   44600    437.84082   -20768.269     36.16444   -20732.104    1363.3879    34.734295    24.670913    35.639446 0.0086801955   -6.8333908   -7.9389215 
   44700    449.08944   -20770.152    37.093545   -20733.058    146.41553    34.690289    24.745676    35.723102 -0.027243791   -6.9323425   -7.9560545 
   44800    429.28521   -20769.872     35.45777   -20734.414   -126.69652    34.598571    24.712401    35.815672   0.14569745   -7.1993793   -8.1069375 
   44900    435.59422   -20771.735    35.978878   -20735.757     122.0063    34.837253    24.760032    35.610944   0.17014563   -7.1393716   -7.8648637 
   45000    457.62283   -20774.029    37.798379   -20736.231    6835.5268    34.610865     24.64553    35.459133  0.035143531   -6.9328633   -8.0326708 
   45100    429.11759   -20772.764    35.443926    -20737.32   -6720.8463    34.615748    24.723668    35.742616 -0.063110973   -6.8862624   -7.9936204 
   45200    440.26337   -20775.123    36.364536   -20738.758    3324.5336    34.716264    24.636327    35.482424  0.080617684   -7.1416792   -7.9526477 
   45300    412.48275   -20774.135    34.069933   -20740.065   -988.04679    34.676637    24.683326    35.639996  0.064886632   -7.0276086   -8.0523164 
   45400    421.20866   -20774.805     34.79067   -20740.014   -290.25477    34.631115    24.693866    35.741162 -0.040312925   -6.9359039   -7.9498981 
   45500    439.52577   -20775.864    36.303613    -20739.56    264.82986    34.765807    24.614413    35.649281  0.092432281   -6.8560581   -7.9692673 
   45600    427.70885   -20775.232    35.327568   -20739.904   -1121.6315    34.822017    24.655041    35.457305   0.12131617   -7.0237046   -8.1931094 
   45700    414.10028   -20775.402    34.203537   -20741.198    454.43904    34.662289    24.686304    35.553823 -0.016247288   -6.6929868    -8.099708 
   45800    422.71179   -20775.893    34.914824   -20740.978   -993.89066    34.624999    24.619088    35.828901 0.0026300703    -6.913806   -8.1391453 
   45900    419.92789   -20775.028    34.684881   -20740.344   -778.90733    34.692259    24.816667    35.440242  0.056871999   -6.8527268   -8.3832787 
   46000    415.63647   -20774.961    34.330422   -20740.631   -441.58985    34.599161    24.689994    35.538297    0.0407994   -7.0326627   -8.3431979 
   46100    435.17282   -20776.594     35.94407    -20740.65    295.71651    34.644355    24.661813    35.586589 -0.034436585   -6.6562816   -8.8255341 
   46200    412.66604   -20774.793    34.085073   -20740.708   -653.00906    34.685858    24.665648    35.589464  -0.03169595   -6.5789627    -8.456724 
   46300    418.14562    -20774.96    34.537671   -20740.422   -247.73134    34.741051    24.697417    35.545945   0.14971488   -6.6694222   -8.1630099 
   46400    394.26325   -20773.287    32.565053   -20740.722    915.99205     34.55707    24.691584    35.741567  0.076810499   -6.6687446   -8.4826625 
   46500    404.47162   -20773.929    33.408237   -20740.521   -223.64474    34.792368    24.616013    35.679325  0.038412726   -7.1368095   -8.2774017 
   46600    409.49537   -20775.591    33.823185   -20741.768   -301.54896    34.675267    24.723695     35.66446   0.22765842   -6.5873757   -8.2707562 
   46700    425.88618   -20776.425     35.17702   -20741.248     462.4348    34.587716    24.704764    35.687321   0.10402084   -6.4833052   -8.4881426 
   46800    412.82138   -20775.771    34.097904   -20741.673   -1926.9821    34.772154    24.678194     35.64721  -0.16417176   -6.5008054   -8.1695517 
   46900    413.42384   -20775.461    34.147665   -20741.313     1033.099    34.695738    24.565055     35.67963 0.0055459138   -6.6849307   -8.4768348 
   47000    416.10171    -20776.73     34.36885   -20742.361   -629.57958    34.715749    24.710587    35.655548   0.35977004   -6.5390262   -8.5678154 
   47100    387.69406   -20774.817    32.022456   -20742.794    758.88986    34.674417    24.593404    35.699858  0.021310115   -6.5447987   -8.1943609 
   47200    428.66552   -20777.738    35.406586   -20742.332    2309.4969    34.513851    24.461254    35.302419  -0.10992861   -6.1952003   -8.2141376 
   47300    431.36895   -20778.242    35.629881   -20742.612    -2033.475    34.665123    24.546472    35.356416   0.19381838   -6.3549805   -8.3038481 
   47400    438.71038   -20779.229    36.236264   -20742.993    1372.1913    34.682472    24.535831    35.301406  0.092086556    -6.402487   -8.1825919 
   47500    428.58901   -20778.304    35.400266   -20742.904   -565.07468    34.673996    24.557434    35.275533   0.12983779   -6.7299436   -8.3924562 
   47600     435.2407   -20779.691    35.949677   -20743.742   -373.55801    34.712583    24.566712     35.34302   0.03921072    -6.613775    -8.020738 
   47700    402.44537   -20777.903    33.240873   -20744.662   -11.119205    34.599343    24.522565    35.364013 -0.0079651683   -6.7012352   -8.1693643 
   47800    392.08189   -20777.392    32.384879   -20745.007   -1204.7551    34.698473    24.557774    35.204195   0.17629245   -7.0039259   -8.0450422 
   47900    408.45467   -20779.291    33.737225   -20745.554    1017.2058    34.673622    24.539716    35.257534  0.064796191   -6.6285365   -7.9861345 
[...]
  944600    429.03382   -20743.151    35.437006   -20707.714    9114.8215     34.78356    24.750428    35.207058   0.18305917   -8.8971937   -6.0209898 
  944700    433.80297   -20744.088    35.830925   -20708.257   -4108.3637    35.026696    24.994103    35.166524  0.030504426   -8.8383884    -6.108713 
  944800    422.83066   -20743.401    34.924643   -20708.476    5916.5971     35.25157    24.947488    35.147403 -0.031574731   -8.8312415    -6.076909 
  944900    399.34735   -20741.474    32.984986   -20708.489    493.87882    35.198427    25.031445    35.226714 -0.0021444795   -8.8301864   -6.2800744 
  945000    418.56655   -20743.529    34.572439   -20708.957   -2098.2594    35.295664    24.985101    35.145545 -0.028740169   -8.6294632   -6.3353632 
  945100    405.52439   -20741.633    33.495193   -20708.138   -3855.2492    35.160455    25.066657    35.212627  0.032315066   -8.7963998   -6.3337681 
  945200     436.1652    -20744.22    36.026039   -20708.194   -3763.3595    35.406912    24.976366    35.076648 -0.039893807   -8.8832712   -6.4654208 
  945300    420.53474   -20744.539    34.735006   -20709.804   -2789.6395    35.096818    24.966523    35.303453  -0.17958004     -8.71613   -6.5780844 
  945400    414.88553   -20743.471    34.268397   -20709.202   -2502.6507    35.054448    25.018018    35.344281 -0.099576407   -8.7658656   -6.1771031 
  945500    412.18609   -20743.202     34.04543   -20709.157   -949.23628    35.377274    24.975756    35.041888 0.0018848789   -9.1819525   -6.1411995 
  945600    424.28111   -20744.508    35.044445   -20709.463    671.02497    35.185774    24.886464    35.247449 -0.019693986   -8.8063787   -6.2754827 
  945700    405.27311   -20742.893    33.474437   -20709.419    448.74841    35.049806    24.969348     35.35452  0.024132387   -9.0143233   -6.1821042 
  945800    416.80663   -20744.507    34.427074    -20710.08    192.04169    35.340657    24.830645    35.259149  0.044272364   -9.2236237   -6.0947889 
  945900    432.37372   -20745.358    35.712873   -20709.645    974.29274    35.020354    24.966514    35.375748  0.067648458    -9.435895    -6.437723 
  946000     420.2672   -20744.835    34.712907   -20710.122    1790.4327    35.370745    24.812121    35.221748 -0.0013592095   -9.3200317   -6.5168123 
  946100      412.737   -20744.282    34.090934   -20710.191    1049.7339    35.380487    24.873176    35.154993  -0.12261866   -9.2008403   -6.2539951 
  946200    402.39745   -20743.286    33.236916   -20710.049    364.65597    35.305721     24.94388    35.270888 -0.0091454456   -9.3326697   -5.9485645 
  946300    382.74628   -20743.526    31.613783   -20711.913   -348.04798    35.253759    25.050666      35.1609 -0.091602746   -8.9635075   -6.2170612 
  946400    400.92308   -20745.664    33.115137   -20712.549   -1376.6152    35.312842    24.934869    35.266716  -0.22337648   -9.2311678   -6.7599938 
  946500    391.86006   -20745.534    32.366556   -20713.168   -1735.2969    35.086084    25.089396    35.267613 -0.038707674   -9.1788298    -6.574051 
  946600    405.98311   -20746.044    33.533081   -20712.511   -1074.2412    35.315401    24.868709    35.338756   0.20752084    -9.160578   -6.0108121 
  946700     379.8686   -20744.567    31.376096   -20713.191     -273.308    35.135595    24.870817    35.317882  0.058788457   -9.3258195   -5.9970926 
  946800    385.68304   -20744.273    31.856352   -20712.417   -784.58972    35.155322    24.961312    35.235477  -0.11112928   -9.1448343   -6.5531495 
  946900    399.68021   -20744.177    33.012479   -20711.165   -160.51554    35.388853    24.891866    35.125991 -0.052921842   -9.2359178   -6.6584979 
  947000    385.90622   -20743.176    31.874786   -20711.301   -122.73839    34.958376    24.976645    35.427886 -0.044925547    -9.043321   -6.2265008 
  947100     423.5354    -20746.95    34.982852   -20711.967   -496.44365    34.917393    24.831156    35.184594  -0.11311919   -8.9355765   -6.0725703 
  947200     444.8006   -20750.963    36.739299   -20714.224    7128.8605    34.799077     24.73405     34.85843  -0.15633944   -8.7345826   -6.0754795 
  947300      418.919   -20749.526     34.60155   -20714.924    3305.2108    34.768141    24.766495     35.00357 -0.048835128   -8.7414626   -6.1725162 
  947400    426.91783   -20749.874    35.262231   -20714.612    927.56837    34.918266    24.629457    34.979738 -0.016265685   -8.8803016   -6.0520666 
  947500    409.83763   -20748.192    33.851454   -20714.341   -1442.7799     34.83345    24.737567    35.015559  -0.13704017   -8.8159943    -6.070944 
  947600    424.00472   -20750.113    35.021616   -20715.091   -3882.3766    34.843507    24.797927    34.964732  -0.15249664   -8.7447618   -6.0939242 
  947700    427.14757    -20750.75    35.281208   -20715.469   -3265.1811    35.033652    24.674331    35.070974 -0.089905413   -8.9294445   -6.3207407 
  947800    403.58417   -20749.683    33.334935   -20716.348   -2477.7043    34.916969    24.764478    34.960724 -0.034452272   -9.0820781   -6.4388997 
  947900    417.06493   -20751.184    34.448409   -20716.735   -1505.0006    34.858712    24.723666    35.165185  0.035600278   -8.7943478    -6.123911 
  948000    398.30771    -20750.45    32.899115   -20717.551   -57.085082    34.990218    24.703115    34.973531 -0.093747351   -8.9798966   -5.8355775 
  948100    424.06677   -20752.049    35.026742   -20717.023    1388.2011    34.974314    24.766345    34.822766 -0.060474952   -8.8471259   -6.1716608 
  948200    409.91483   -20750.294     33.85783   -20716.436    2186.3058    34.917414    24.758983    34.842568  0.094693369   -8.9000339   -6.2704442 
  948300    424.09836   -20752.506    35.029351   -20717.476    2018.7557    34.911231    24.682421    34.932574 -0.096925972   -8.6642744   -6.1850329 
  948400    406.90984   -20751.345    33.609627   -20717.736    882.11684    34.818981    24.761821    34.915027 -0.045850253   -8.8337706   -5.9682425 
  948500    409.67155    -20751.38    33.837737   -20717.543     33.91828    34.889982    24.777009    34.913401 -0.096599493   -8.9459245   -6.2964583 
  948600    400.93548   -20750.629    33.116161   -20717.513   -1262.7013    34.878954    24.710562    35.101805 -0.039040703   -8.5964236   -6.1734275 
  948700    420.87206   -20752.462    34.762868   -20717.699   -2042.8076    35.042828    24.752286    34.964307 -0.013234635   -9.0503886   -5.9959293 
  948800    398.91443   -20750.947    32.949228   -20717.998   -1288.7073    34.894577    24.781698    34.946386  -0.23145159   -8.7556499   -6.3427356 
  948900     408.4478   -20750.976    33.736658    -20717.24   -1890.5678    34.997738    24.657113    35.017239 -0.088665376   -8.8603756   -6.1609271 
  949000    406.63368   -20750.436    33.586817   -20716.849    -675.9391    35.003709    24.629385    35.049126 -0.047892385   -8.8880299   -6.1464129 
  949100    403.32887   -20749.144    33.313849    -20715.83    29.818131    34.856469    24.718702    35.014785 0.00099609053   -8.8509693   -6.1102672 
  949200    409.01098   -20749.577    33.783175   -20715.794    627.02835    34.821009    24.742192     35.00439   0.00438261   -8.5597975   -6.1123638 
  949300    412.21251   -20750.194    34.047612   -20716.147    1427.9235    34.974236    24.600585    34.990402  -0.17859752   -8.8335387   -6.1370219 
  949400    409.29772   -20750.793    33.806859   -20716.986    980.48387    34.880018    24.709545    35.075623   0.10858886   -8.9376082   -6.0992469 
  949500     397.1728   -20749.679    32.805374   -20716.874   -199.13574    34.911646    24.811755    34.854388 -0.057426262   -8.7668492   -6.1630385 
  949600    416.13205   -20752.648    34.371356   -20718.277    6529.2289    34.794182    24.591024    34.910677   -0.1112083    -8.704786   -6.3562357 
  949700    405.12484   -20751.901    33.462191   -20718.438    6240.4803    34.831612    24.536447    34.919876 0.0036663171   -8.5166025   -6.0123011 
  949800     425.5584   -20753.733    35.149946   -20718.583    3491.9412    34.710919    24.708708    34.927858 0.0021331144   -8.7262958   -5.9326423 
  949900    410.84771   -20751.957    33.934884   -20718.022    -1141.313    34.959052    24.641312    34.777206 0.0097270797   -8.8010529   -6.2162755 
  950000    419.51963   -20752.648     34.65116   -20717.997   -2743.5937    34.844666    24.597647    35.022117 -0.076317479    -8.799525   -6.2347138 
  950100    407.48375   -20752.176     33.65703   -20718.519   -1770.1544    34.886209    24.724614    34.764231  0.022485552   -8.8682405   -5.9743796 
  950200    411.17117   -20752.387    33.961601   -20718.425    527.56522    34.748907    24.592117    35.012153  -0.15982494   -8.6847769   -6.0572906 
  950300    402.39618   -20751.822    33.236811   -20718.585    1169.0151     34.81667    24.621381    34.862828  -0.11633957   -8.6407262    -6.479852 
  950400    400.55069   -20751.197    33.084378   -20718.113    1658.3956    34.826999    24.740485    34.763485   0.10205433   -8.9239038   -6.1120375 
  950500    408.87164   -20751.483    33.771666   -20717.712    924.48989    34.835559    24.615869    34.953527  -0.12577972   -8.7329948    -6.032308 
  950600    424.60751   -20751.482    35.071405    -20716.41    131.23499    34.858294    24.707212    34.801501  -0.14702388   -8.4595724   -6.3504702 
  950700    398.79198   -20749.658    32.939114   -20716.719   -414.56948    34.783133     24.61975    35.033466  0.073289924   -8.8077408   -6.1390719 
  950800    405.53518    -20750.61    33.496083   -20717.114    -632.7819    34.937261    24.628351    34.860265 -0.034670744   -8.7014109   -6.1133432 
  950900      421.728    -20751.57    34.833566   -20716.737   -1035.7366     34.97485    24.635905    34.887958  -0.11901098   -8.8062192   -6.2761877 
  951000    420.39689   -20751.993    34.723619    -20717.27    818.67449    34.747355     24.69631    34.905395 -0.064559017   -8.6111535   -6.0938953 
  951100     420.7006   -20752.079    34.748706    -20717.33    2042.7943    34.888551    24.627665    34.791919  0.066443578   -8.6138143   -6.1095325 
  951200    409.57757   -20750.026    33.829974   -20716.196    2608.8076    34.644552    24.694714    34.898825  -0.10077564   -8.6732937   -6.3543123 
  951300    439.65546   -20751.976    36.314324   -20715.661   -477.17603     34.88223    24.643644    34.905814 -0.028719226   -8.7593241   -5.7959051 
  951400    402.45646   -20749.559     33.24179   -20716.317   -1048.2269    34.917113    24.592543    34.977734 -0.082609916   -8.6849905   -5.9629709 
  951500     407.3816   -20749.465    33.648593   -20715.817   -1914.5945    35.022001     24.65805    34.824782 -0.099687459   -8.9783167   -6.2747376 
  951600    423.70453   -20749.925    34.996822   -20714.928   -2140.5421    34.691669    24.706729    35.067866  0.032294857   -8.7250826   -6.0745269 
  951700    432.41327    -20750.36    35.716139   -20714.644    744.51585      34.8864    24.575587    34.970659  -0.11627409   -8.8569929    -6.010537 
  951800    417.15624   -20749.455    34.455951   -20714.999    1218.3533    34.811035    24.666128    34.929512  -0.20147215   -8.6988448   -6.1814945 
  951900    419.82601   -20750.942    34.676467   -20716.266    1511.5202    34.815829    24.705434    34.819942  0.036294663   -8.8782539   -5.9818299 
  952000    486.75151   -20757.603    40.204328   -20717.399   -3383.8804    34.698742     24.50084    34.668386 -0.0008804377    -8.623104    -6.163916 
  952100    449.97875   -20755.529    37.166999   -20718.362   -1340.7471     34.68847    24.526924    34.689564  -0.10382662   -8.7715481   -5.9656467 
  952200    440.88756   -20755.627    36.416092   -20719.211     2673.871    34.586277     24.50578    34.654088  0.015536043   -8.6788454   -6.0840232 
  952300    434.36686   -20754.735    35.877501   -20718.858    85.200922    34.628269    24.552175     34.60363 -0.077055489   -8.7276632   -6.1563891 
  952400    454.39629   -20756.931    37.531876   -20719.399   -1704.7307    34.621645    24.554581    34.692815 -0.062648752   -8.6598384   -6.0674494 
  952500    447.75435    -20757.82     36.98327   -20720.837    1315.3032    34.539753    24.591392    34.644065 -0.072912515   -8.7175734   -6.1344396 
  952600    452.06981   -20758.143    37.339715   -20720.803    1192.0183    34.535127    24.521456    34.685437 -0.00033037265   -8.7225613   -5.8720411 
  952700    437.80153   -20757.173    36.161195   -20721.011   -2471.9753    34.776279    24.468148    34.703445 -0.013452571   -8.7231776    -6.170938 
  952800    441.12951   -20756.561    36.436076   -20720.125    225.03999    34.616624    24.507271    34.704941 -0.045330771   -8.7663648   -5.9194804 
  952900    455.54346   -20758.733    37.626629   -20721.106   -1315.9291    34.706757    24.596266    34.530734 -0.026388211   -8.6639614   -6.2500919 
  953000    477.23093   -20761.704    39.417954   -20722.286    2762.4116    34.495848    24.390977    34.487845 -0.086463966   -8.7413016   -6.0309909 
  953100    463.27642   -20761.797    38.265351   -20723.531   -2431.6837    34.520095    24.444713    34.596362 -0.035096964   -8.5413068   -6.1502388 
  953200    420.94249   -20759.295    34.768685   -20724.526   -838.84591    34.611097     24.41473    34.566933 -0.041563674   -8.7153334   -5.9987761 
  953300    454.27493   -20762.711    37.521852   -20725.189    1773.2801    34.523544    24.348852    34.618442 -0.0055448542   -8.6520953   -6.1610265 
  953400    444.64887   -20761.878    36.726766   -20725.152    1076.3175    34.488194    24.355827    34.620339  -0.10285048   -8.6149521   -5.9658229 
  953500    438.59867   -20762.861    36.227036   -20726.634   -803.51763    34.593989    24.381832    34.539103 -0.061413324   -8.7582548   -6.0823427 
  953600    438.62847   -20763.813    36.229498   -20727.583   -436.18618    34.414078    24.484113    34.615595 -0.052721778   -8.4839571   -6.0140813 
  953700    427.56023   -20763.843    35.315291   -20728.528    1225.4229    34.560936    24.427611    34.487249 -0.016845815   -8.7198194   -6.1274741 
  953800    416.26447   -20763.871    34.382293   -20729.488    115.28207    34.612456    24.439241    34.378154 -0.026649481    -8.681442   -6.0226148 
  953900    423.14524    -20765.63    34.950626   -20730.679   -864.42963    34.464967    24.433081    34.577734 -0.061974849   -8.6774892   -6.0853582 
  954000    420.12363   -20764.259     34.70105   -20729.558    1466.9781     34.48554    24.319431    34.643749 -0.066933578   -8.6410338   -6.0415938 
  954100     417.3136   -20763.904    34.468949   -20729.435   -1798.7037    34.591317    24.386517    34.609012 -0.0026600933   -8.7200708   -6.0693785 
  954200    384.99508    -20761.42    31.799528   -20729.621     1752.258    34.497475    24.368328     34.55666  -0.13765921   -8.6278026   -6.0230522 
  954300    432.00363    -20765.64    35.682305   -20729.957    -1088.824    34.588509    24.443555    34.536644 -0.0022707712   -8.7653766   -5.9773289 
  954400    415.61874   -20764.358    34.328957   -20730.029    1347.2074    34.467091    24.451978    34.556736 0.0058280778   -8.5876976    -6.131052 
  954500    413.24717   -20764.394    34.133072   -20730.261   -1426.6105    34.555321    24.498956      34.5207 -0.045226606   -8.7032816   -6.0372328 
  954600     401.4279   -20763.143    33.156834   -20729.986    593.07164    34.449261    24.443985     34.60542  0.043273316   -8.6362044   -6.1291898 
  954700    404.72691   -20764.178    33.429323   -20730.749   -997.24362    34.559383    24.475772    34.530601  -0.14494247   -8.6286288   -5.9563563 
  954800    449.82377   -20768.818    37.154198   -20731.664    2152.2123     34.43221     24.35768    34.291257  0.020163333   -8.7048309   -6.1396015 
  954900    429.70906   -20766.362     35.49278   -20730.869   -5205.7346    34.472984    24.406392    34.479077   -0.1470908   -8.6007085   -6.0286439 
  955000    479.92857   -20770.571    39.640772   -20730.931   -1447.3127    34.343601     24.34994    34.445307  0.067042282    -8.603976   -5.9715587 
  955100    444.52786   -20768.871    36.716771   -20732.154   -628.11864    34.417821    24.346527    34.388511  -0.10699543   -8.6156558   -6.1098081 
  955200    444.05629   -20769.973    36.677821   -20733.295    952.45055    34.394931    24.328664    34.346175  0.023307334   -8.5418374   -5.9982668 
  955300    448.13777   -20771.674     37.01494   -20734.659   -365.60528    34.400305    24.280091    34.392015  -0.01408813   -8.5312296   -6.0964653 
  955400    430.96774   -20770.889    35.596743   -20735.292     847.9937    34.339302    24.324482    34.351474 -0.045983108   -8.6680791   -6.0673663 
  955500    427.19207   -20770.768    35.284883   -20735.483    1442.9078    34.323504    24.316436    34.411555 -0.065961637   -8.5948045   -5.8415246 
  955600    434.04349   -20770.608    35.850791   -20734.757   -602.16669    34.336575    24.357429    34.415864 -0.044910387   -8.4477179   -6.2163754 
  955700    399.20861   -20768.777    32.973527   -20735.803   -680.10256    34.369424    24.329179     34.39938 0.0080750561   -8.5154493   -5.9838282 
  955800    413.25537   -20770.569     34.13375   -20736.435    733.57428    34.368132     24.35113    34.355207  -0.10541301   -8.6495836    -6.020286 
  955900    410.38333     -20771.1    33.896527   -20737.204   -1266.1449    34.315196     24.35097    34.469013  0.051319186   -8.6261765   -6.1377858 
  956000    422.40254   -20771.413    34.889281   -20736.524    241.44601    34.339823    24.330314     34.44884  -0.10173306   -8.4644677   -5.9596475 
  956100    431.84715    -20772.21     35.66938   -20736.541    197.02384    34.379381    24.350248     34.38346 -0.085966208   -8.4994359   -6.1901421 
  956200    410.24269   -20770.635    33.884911    -20736.75    230.96161     34.34574    24.354514    34.353076  0.019176359   -8.7066885   -5.8825182 
  956300    398.16221   -20771.078    32.887097   -20738.191    1590.3373    34.343178    24.368294    34.332159 -0.065939725   -8.6881948    -6.112971 
  956400    381.32908   -20770.444    31.496727   -20738.947   -919.64666    34.401671    24.353878    34.341451  0.044082967   -8.5193085   -6.0553338 
  956500     402.6852   -20772.554    33.260683   -20739.293   -1214.6563    34.371176    24.334573    34.418571 -0.062709038   -8.5694331   -6.0356698 
  956600    383.13815   -20771.373    31.646151   -20739.727    1212.9524    34.367599    24.290873    34.381504 0.0092930842     -8.65387   -6.0725649 
  956700    386.41569   -20771.149    31.916866   -20739.232      2244.13    34.448972    24.302124    34.453229  -0.14106391   -8.6848491   -5.9723846 
  956800    387.46967   -20771.671    32.003923   -20739.667   -3422.8158    34.463016    24.397446    34.496026 0.0067176928   -8.4751854   -6.1298584 
  956900    378.09329   -20770.625    31.229459   -20739.395    1970.9149    34.396329    24.337715    34.422607  -0.12983051    -8.549863   -6.0179981 
  957000    371.46595   -20770.022     30.68206    -20739.34   -1565.1017    34.424707     24.38101    34.479928 -0.032079317   -8.6221838    -6.104203 
  957100    394.00903   -20771.124    32.544055    -20738.58   -521.10954    34.442162     24.35427     34.42663  -0.02042963   -8.5924174   -6.0367489 
  957200    392.62653    -20770.47    32.429865    -20738.04    2340.2018    34.404473    24.359764    34.387159  -0.12352465   -8.5443112    -5.972698 
  957300    380.76408    -20770.34    31.450059    -20738.89   -943.21275    34.379431    24.396913     34.46617  0.022849978   -8.6768186   -6.1228387 
  957400    395.09642   -20770.924    32.633871    -20738.29    -1346.152    34.461729    24.372672    34.445029 -0.086154132   -8.6680143    -6.016549 
  957500    387.83665   -20769.775    32.034234    -20737.74    481.48145    34.448094    24.373888    34.401441  -0.01840853   -8.5296233   -6.0219536 
  957600    394.69501    -20770.26    