LAMMPS data file via write_data, version 29 Aug 2024, timestep = 100043, units = metal

5184 atoms
5 atom types

-0.24002491071657417 54.13022491071776 xlo xhi
-0.1719168118821628 46.842199026905824 ylo yhi
-0.10817425588476581 44.13217425588604 zlo zhi
-27.1858313459824 0.07462773193883276 -0.1557970751590533 xy xz yz

Masses

1 12.011
2 1.007
3 126.905
4 14.0061
5 207.2

Atoms # atomic

3893 4 0.5964073710517281 0.3897612647560277 0.2595317834270493 0 0 0
444 2 0.22735952978233398 -0.033848004804316184 1.122458780204566 0 0 0
445 2 1.619766147394411 0.3410242482567891 0.15324558306498237 0 0 0
442 2 3.638659464254117 1.1314654613570918 2.9335261693145487 0 0 0
2780 3 3.953931439701523 0.2522253361083421 0.08698520108157656 0 1 0
2 1 4.0146420765120165 1.9854846871802425 3.463974571380581 0 0 0
3891 4 4.73795540632703 2.814187069977769 2.76773537662186 0 0 0
440 2 4.890623700100269 2.7839015388832458 1.7734754699244222 0 0 0
806 2 8.649284186428817 1.8920025675978933 0.6369152273701446 0 0 0
807 2 -18.68278214957271 46.686727218803014 1.3555815191622396 0 -1 0
75 1 8.795427716213947 -0.11224905793767115 0.3096898875494395 0 0 0
2810 3 9.203609263614345 2.3286406900795398 3.5468641536848713 0 0 0
802 2 14.452617900584873 1.7417241881140522 3.2663871355932077 0 0 0
4035 4 12.509688144147308 1.9163016430974293 2.90209603482713 0 0 0
800 2 12.501810488262716 1.243824116791824 2.1832602254709244 0 0 0
799 2 11.55358838946873 2.329660982403994 3.186205589135827 0 0 0
4181 4 18.628070010215165 0.20275909035027884 0.24392990440832368 0 0 0
1164 2 18.8403306492959 0.11524263241267163 1.2056247908353086 0 0 0
1158 2 22.143417555046078 1.245085710683921 2.81407122873033 0 0 0
4180 4 22.88719666944435 1.497215680806621 3.498206407283142 0 0 0
1161 2 23.845708451921695 1.079716751490868 3.4301689469085654 0 0 0
1525 2 28.58807994397973 0.07893621910546417 1.4113066230747084 0 0 0
4325 4 27.9628179522276 0.12543129230925282 0.5721852287869245 0 0 0
1524 2 28.43375710163018 0.026995487711172828 43.870518381379 0 0 -1
219 1 26.69803366120842 0.07430959628513534 0.8307666725012829 0 0 0
3428 3 31.742334943654498 0.04971054490748669 0.11514307369626425 0 1 0
1518 2 32.53446666153414 3.286624000054955 2.967682871415557 0 0 0
4324 4 32.175955470134 2.2788549799854048 2.9193408572008983 0 0 0
1521 2 32.55797139571604 1.5924493466442653 2.2169627404401955 0 0 0
1522 2 30.604152033478453 1.1027666951584696 3.3508518288146876 0 0 0
218 1 31.07749886160962 2.0728023416513093 3.548381342185456 0 0 0
3458 3 35.94009083536932 2.0403991277580453 2.7321177894874515 0 0 0
1878 2 41.60641529591501 2.502963218234232 1.8909149461794812 0 0 0
4468 4 41.08047971479199 1.8032812425641147 2.4462828575345132 0 0 0
1881 2 41.43705756943149 0.8579082034220682 2.3538531921014343 0 0 0
3674 3 45.35204776655408 2.312223984415142 3.071116620458784 0 0 0
2238 2 48.65448619633514 1.1788762884940194 3.0266627772576618 0 0 0
2241 2 50.185392067944264 0.7930772885540748 3.7459679440837403 0 0 0
2601 3 51.63106484811584 3.166632540204468 0.13216664449487003 -1 0 0
2593 3 -2.784705658395848 6.521297477361151 3.391743425049381 0 0 0
4755 5 -0.5671281509822748 5.317136332470719 1.3641322332122459 0 0 0
2599 3 1.9986707084027788 3.823550947971821 -0.03243139801778905 0 0 0
439 2 5.285115690300771 3.5568352575308797 3.275808927906283 0 0 0
4827 5 8.519232481900627 4.999716612020505 1.996798556304201 0 0 0
2815 3 11.260829432084353 4.248288506025383 0.2491556368471876 0 0 0
4899 5 17.6640041310555 4.793790386240041 1.952287806066328 0 0 0
3033 3 15.384227606006974 3.414616639805615 0.11446210868201143 0 0 0
3031 3 20.157743589359235 3.8362486521145662 0.3372091130559334 0 0 0
3241 3 23.906554703114438 5.904965933933103 2.949446695162075 0 0 0
1583 2 23.639676588628003 6.498418391332687 0.2697302987101241 0 0 0
4971 5 26.929980221496063 5.002625938759209 2.0219141569498587 0 0 0
3247 3 29.562123733616055 4.052872518769093 0.3184521680019801 0 0 0
5043 5 36.21103573838509 4.846803305029504 1.6823693677049087 0 0 0
3457 3 33.54582411605894 6.0189038798315995 3.323414353877005 0 0 0
1879 2 40.37754357025203 4.068490365581381 3.2959375137052325 0 0 0
3673 3 42.60435909764763 6.5248135268897265 3.1160048450729056 0 0 0
5115 5 45.08895360234284 5.163987212653773 1.6699224155864727 0 0 0
2239 2 48.28565634747173 3.624220752868746 2.6640487122775642 0 0 0
4611 4 49.2586667884777 3.677435474245525 2.9792185798440802 0 0 0
2240 2 49.71706570075381 4.534351301845647 2.800557264211803 0 0 0
503 2 49.21213103114418 6.832070028392143 1.2664189984480212 -1 0 0
506 2 -4.712094922665584 8.424920070182218 1.6664686769015429 0 0 0
502 2 0.8552463926690759 10.151606362446373 3.27620828990688 0 0 0
3916 4 -0.9557756827203101 9.387779374144328 2.6091010829577916 0 0 0
501 2 -0.5466867809236023 8.59985855409844 2.108767592800361 0 0 0
14 1 -0.23403026043200156 10.25947868989929 3.3260507792945004 0 0 0
498 2 -1.8750816888886326 9.710688051106414 2.404908776795225 0 0 0
2595 3 1.9060682426026956 6.963663397183441 2.879565019472518 0 0 0
4061 4 4.935018346905003 7.476259788734819 0.5716425912733362 0 0 0
865 2 5.5393917316399355 8.21204671670205 0.801940677553847 0 0 0
2846 3 4.5830234637473515 10.105415458509148 3.5268395740064933 0 0 0
858 2 8.289993095929066 8.563623471511294 3.0893103809495415 0 0 0
864 2 4.547057022910511 7.088516042093956 1.4279928543822744 0 0 0
2816 3 8.52434180564378 7.857209490366849 0.19578324133070701 0 0 0
1227 2 14.583961024323122 8.267900675070438 1.1265013976478744 0 0 0
1225 2 12.539326332696387 8.148683366307187 1.9808966820294818 0 0 0
4205 4 12.609039901724275 8.04009570894958 1.0229284906214435 0 0 0
159 1 13.780683947487026 7.949328975850001 0.45218632424513105 0 0 0
1224 2 11.74106564087618 7.6945970013812985 0.5581659728471094 0 0 0
1220 2 16.641717724049208 8.835027934910942 3.9147224970693006 0 0 0
1219 2 18.31065289434796 8.601254973232278 3.6988200661376998 0 0 0
3032 3 17.573447125238264 7.60602987968474 0.15291508649402746 0 0 0
1585 2 20.839140467476593 8.511410991713166 0.5305504875765118 0 0 0
4349 4 21.48099096296251 7.782347826751106 0.5399696623219654 0 0 0
3278 3 22.16151356186543 10.14197967616793 3.4340565819323947 0 0 0
1584 2 21.332695367161463 6.93891392316021 1.00402944063273 0 0 0
1580 2 25.549910496719843 9.862383808528246 2.1065042153242106 0 0 0
4347 4 25.872030251072182 9.973411906892048 3.0816231630571256 0 0 0
1582 2 27.86570159821487 9.632508261793392 2.59179341856309 0 0 0
230 1 27.1317291064351 9.958177816729908 3.3295783349826094 0 0 0
3248 3 27.13866458325654 7.839441150446529 0.22071197932592806 0 0 0
1944 2 31.186457389377487 7.766122404657427 1.6579012276502905 0 0 0
4493 4 30.6087435188791 7.523441583596046 0.8866635903853523 0 0 0
1945 2 29.620893659441414 7.679012170483984 0.8927459278691925 0 0 0
4491 4 35.42471258971344 10.363611551023054 1.9487557735427892 0 0 0
302 1 35.65290905586407 9.864641432215091 3.0984745701372147 0 0 0
1942 2 35.561394460032105 8.74574504586072 3.230093424513656 0 0 0
1940 2 35.42708070256482 9.732161953419737 1.10362284505281 0 0 0
1943 2 33.16791687038608 7.180612872715853 0.3968207113798078 0 0 0
2306 2 38.9020953271785 8.13092931132857 0.43805946973732035 0 0 0
3710 3 39.65720099462129 9.751996129710783 3.0640557117524048 0 0 0
2307 2 41.18077763648914 7.8208526483102325 0.7379818571253313 0 0 0
4635 4 45.71510979082588 9.629853730926817 2.4154803099471738 0 0 0
2300 2 45.111715180123696 9.102211217867296 1.8241670310888145 0 0 0
2299 2 46.45544337639113 10.171849784798095 1.9417730378655302 0 0 0
3918 4 49.54219814774443 7.7181156518924805 0.9473162162689097 -1 0 0
2629 3 -7.2849672708167175 14.062835291979644 3.2295037390693895 0 0 0
4767 5 -4.768084637304294 12.845780824584846 2.0452044455141585 0 0 0
2635 3 -2.760935734331458 11.55748905738188 0.002080084744399663 0 0 0
925 2 -1.028535340273505 13.910883978289737 1.3188236219631326 0 0 0
4839 5 4.163294041928298 12.461430960266174 1.7697297837927388 0 0 0
2845 3 1.9491490899520643 14.014527270092414 3.6602904471521196 0 0 0
2853 3 1.8567778029540536 10.896139428284537 0.12938956950401298 0 0 0
859 2 8.556260547297718 10.389257802965144 1.900599988168818 0 0 0
4059 4 8.412264400452386 10.979354315492161 2.750835410355911 0 0 0
860 2 8.805515035764056 11.883860917842453 2.7279413965078705 0 0 0
3061 3 10.308022389832798 13.943090982363188 3.323439622089764 0 0 0
4911 5 13.397506847763166 12.895111415926175 1.653404053419435 0 0 0
3067 3 15.851810950293665 11.535770517064524 0.7818164291440698 0 0 0
3285 3 19.844696225480043 11.669605830384002 0.2999469083252167 0 0 0
4983 5 22.472130924056938 12.79738402062151 1.7653748389762116 0 0 0
3283 3 24.77823031640417 11.776433119230333 0.18268571543032502 0 0 0
5055 5 31.665663768202755 12.740151221269217 1.961602633133782 0 0 0
3501 3 29.791681963273522 11.221405830110223 44.10294661002344 0 0 -1
1939 2 35.399929900175664 11.389380392912306 1.7731249383004326 0 0 0
3495 3 34.4078220335974 13.825199982697432 3.416669394951468 0 0 0
5127 5 40.49415061893069 12.241764484962923 1.823082013477419 0 0 0
565 2 43.20144250434089 14.08155764627749 0.07831642868593616 -1 0 0
566 2 -7.903781954847985 16.4751613864854 -0.02655206300756978 0 0 0
2666 3 -9.074010668262735 17.540271231378714 3.2921049003602074 0 0 0
560 2 -4.497306878649987 16.227868210993815 2.8467270256434665 0 0 0
2636 3 -4.562107254402132 15.42963596610458 -0.00690553184924958 0 0 0
4085 4 -0.361221849871295 14.625188754478321 1.020572244616055 0 0 0
2882 3 -0.4802003832990027 17.63186084877917 2.9725046471817964 0 0 0
924 2 0.05249081379123682 15.198393620206232 1.7235106170912446 0 0 0
98 1 4.022151044832184 18.000038077064424 3.2255792810630655 0 0 0
922 2 3.2879561337423695 17.75188937757247 2.4552315831801197 0 0 0
923 2 0.9086122638612006 16.53293772512462 -0.07401373028230654 0 0 0
2852 3 4.333284026633686 15.488250437396342 0.20285316483135152 0 0 0
4084 4 5.275668962433106 17.517596487855037 3.2467519216622263 0 0 0
921 2 5.587084622520255 16.67857731544452 2.7829011741158562 0 0 0
1287 2 8.467452616841669 14.504309324453597 0.5209279817495124 0 0 0
1285 2 9.627316310367114 16.356151983845365 1.3063632491648398 0 0 0
4229 4 9.627236708058536 16.20455989696357 0.2851733967552912 0 0 0
1284 2 10.52378252053127 16.372871128879147 44.03473406441515 0 0 -1
3068 3 13.327496838082164 15.5450483084339 -0.047044350334274274 0 0 0
1281 2 12.983141132556614 16.15281572280517 2.7434907689954025 0 0 0
4228 4 12.639306320030657 16.73618663185584 3.497238700684515 0 0 0
1647 2 18.154232645381857 17.13651956405241 0.5066616635255523 0 0 0
243 1 18.000171410353992 16.126036186181512 0.09887176789587954 0 0 0
3063 3 15.435544088736778 14.43657309119697 3.534597862136284 0 0 0
1645 2 19.424938396926155 15.138020868239764 1.1638066186588272 0 0 0
4373 4 18.71458442400733 15.071956857014959 0.4460452273785521 0 0 0
1642 2 23.19765081136166 16.78619531953501 2.870490180158406 0 0 0
242 1 22.720334876185486 17.502972047778627 3.5063888280082147 0 0 0
3284 3 22.261940849409488 15.475835720999617 0.0647854452694398 0 0 0
2006 2 25.305023374872743 15.25215171458657 0.9960917714822286 0 0 0
2007 2 27.50439896859803 14.91336039028403 1.6221999333122752 0 0 0
2005 2 29.196143785571415 15.064949105681245 0.10473083319072238 0 0 0
315 1 27.25262055907579 15.135604433688199 0.6256346821642212 0 0 0
4518 4 25.995092659706007 15.33017853862885 0.295375632008851 0 0 0
1999 2 30.104107860717455 16.992874643869893 3.4513073591291366 0 0 0
3500 3 31.76547751881807 15.38166116039932 0.25718943449740067 0 0 0
2364 2 36.84434324425824 14.882645446040533 1.3553077624487062 0 0 0
4661 4 36.91781240901213 15.73969684920677 0.78664361542288 0 0 0
2365 2 37.621925160155044 16.41264276011379 1.1364730215270502 0 0 0
2361 2 42.17258140647091 16.16550824918253 3.25187276198831 0 0 0
3716 3 40.77003514719236 15.438064491411751 0.05910763601054453 0 0 0
3941 4 44.180744024271405 14.100786102158125 -0.0603636857421473 -1 0 0
27 1 44.80916550819791 15.240359693341496 0.051275284583645414 -1 0 0
567 2 44.244348778343934 16.068227967715476 0.47357499501652844 -1 0 0
2665 3 -11.97971504306981 21.30641269582079 3.1643650020746423 0 0 0
4779 5 -9.324492784809744 20.48384018061829 2.1330273523945826 0 0 0
2671 3 -6.507912321876716 19.691184916044122 0.32743833812606665 0 0 0
562 2 -4.593252044413426 18.38357695019487 2.2608349756704724 0 0 0
26 1 -4.741997161520258 18.09713253390949 3.3215056641355316 0 0 0
4851 5 -0.3193347566953979 20.5303751386582 1.6932635737208226 0 0 0
918 2 5.966744526916343 17.788323822020907 3.859717825785367 0 0 0
3097 3 6.043041340769715 21.30297050177571 3.414004373033529 0 0 0
4923 5 8.64651983501305 20.766264399240423 1.9102016879131325 0 0 0
3103 3 11.329016797196877 19.691289405622292 0.17808260013944988 0 0 0
1282 2 14.340820027670048 17.824293172112363 3.4413720078746035 0 0 0
4995 5 17.81450582987442 20.742130135050125 1.9097745665086712 0 0 0
4372 4 21.577680969016736 17.92436643997017 3.0944230002823168 0 0 0
1641 2 21.3002614878031 17.67882351836641 2.1407101260863635 0 0 0
3319 3 20.400003427873095 19.640450591895856 0.05542436963598407 0 0 0
3537 3 24.387813568034733 19.38877296499398 0.26486075799663616 0 0 0
5067 5 26.707278830807372 20.325793039256997 2.3077166300247245 0 0 0
3535 3 29.266402418767743 19.259074762563117 0.5172586530480413 0 0 0
1998 2 31.514924578590406 18.600323774228478 1.9271431660895395 0 0 0
4516 4 32.02325132189095 18.755757354825526 2.804482074479263 0 0 0
2001 2 32.67073186435225 19.55974802732395 2.7881083700660865 0 0 0
5139 5 36.065650826619304 20.40794592325361 1.9693549583367815 0 0 0
3751 3 38.62124493741294 19.64262254581629 0.25535274111505557 0 0 0
620 2 -10.447168647321693 24.725892196165987 1.665247790142119 0 0 0
2672 3 -9.108659621814745 23.315504716163215 -0.02232969368129943 0 0 0
2881 3 -2.6673661264556316 21.724963764362737 3.373559987175082 0 0 0
985 2 -3.444134659182265 22.174404068440484 0.20102768801992954 0 0 0
980 2 -0.9984071676934633 25.200977042514157 1.6798287882395497 0 0 0
4107 4 -1.012115609726145 25.2330369961275 2.7096407745365654 0 0 0
979 2 -1.9625953695693015 25.178148799651417 3.064095208062229 0 0 0
4253 4 4.38976173695002 22.320044538885753 0.4069700799414696 0 0 0
1345 2 4.855774557985256 21.83022869797646 1.1844270076828527 0 0 0
183 1 4.909851018257126 23.501111703073235 0.10727027805056585 0 0 0
1347 2 5.66997978231886 23.805004434788398 0.824035817806722 0 0 0
3099 3 10.866328436449525 22.510200480899293 3.307303635967166 0 0 0
1706 2 11.501230123527183 24.19193328498125 0.396113173389275 0 0 0
3104 3 8.521243778518745 23.460884336819394 0.22881770243869598 0 0 0
4398 4 12.486401109931364 24.114246560943887 0.30658229829249073 0 0 0
1707 2 12.826172430839174 22.100138322033416 0.4772822821400151 0 0 0
255 1 13.175015751488749 23.04647635418044 -0.021341148523056408 0 0 0
3320 3 18.466297223989233 23.845089291536432 0.6251973131455137 0 0 0
3313 3 15.409034926075835 22.07099187662432 3.565607163575746 0 0 0
1698 2 17.7241062861799 24.786249824098867 3.1230395435418083 0 0 0
2065 2 21.67783136945229 24.96577819878237 1.8555014750780976 0 0 0
4541 4 21.92869785456028 24.128670768166856 1.3260051971625375 0 0 0
2064 2 21.290701306843342 23.3628382887523 1.5034945471778787 0 0 0
327 1 23.021825992344148 24.06671986329139 0.5696661939781824 0 0 0
2067 2 23.59111659379269 24.9898887637884 0.3992463655521026 0 0 0
3536 3 27.31639424636478 23.240949932252843 0.2597156221963172 0 0 0
2059 2 26.264122315838964 24.21005462345355 3.317269292205658 0 0 0
2058 2 28.325907329354486 24.474773574811252 2.5487923177554364 0 0 0
4686 4 30.77468166635508 22.382203607991503 0.0383390910546646 0 0 0
2426 2 29.88275745408736 21.904249090169518 0.06865771673636359 0 0 0
399 1 30.956145847144374 23.677502853364963 -0.03473840059643599 0 0 0
2427 2 30.163026444093973 24.361390863499356 0.24574612541107815 0 0 0
2418 2 35.49736751510525 24.99925225305614 2.4840474362590133 0 0 0
3752 3 36.25391207658187 23.1504520217033 0.1226572922461435 0 0 0
3745 3 33.198572890793315 22.144900688271175 2.727720730277143 0 0 0
625 2 38.856295467164685 24.15483181870259 0.09205022199816174 -1 0 0
3965 4 39.904378295909865 23.955539589012844 44.031957624068454 -1 0 -1
627 2 39.653245052030925 22.199644612301917 0.5278897186941398 -1 0 0
39 1 40.32322434660158 22.86718416215503 -0.056867837847851856 -1 0 0
4791 5 -13.949731289647348 28.3644316055358 1.7359622980001828 0 0 0
2702 3 -14.342008829498157 25.59721495495001 3.4094330196313307 0 0 0
3963 4 -10.290594945079276 25.293776083630558 2.4686680698726438 0 0 0
619 2 -11.049664340382625 25.473704876190148 3.095988817264599 0 0 0
622 2 -8.256871990414313 25.08897962310725 2.2414812852323847 0 0 0
38 1 -9.074628306785693 25.351505631021816 2.946918531843279 0 0 0
2925 3 -7.571659773994875 27.509876990580903 0.2599631650645135 0 0 0
4863 5 -4.806571350058753 28.565656144552815 1.814147747482942 0 0 0
2918 3 -4.785303961227122 25.294727581233275 2.516750513100902 0 0 0
982 2 0.7598313424662188 26.20534335420562 2.7319510554114483 0 0 0
110 1 -0.041943231531612196 25.89899725286986 3.313470991241535 0 0 0
4935 5 4.077792820153256 28.526132850147444 1.4253323485277882 0 0 0
3134 3 3.762177030238428 25.6310287841268 3.103058054755787 0 0 0
1340 2 7.491938028476562 25.837046216675876 1.779686992807745 0 0 0
4251 4 7.699838939261494 26.319595514161424 2.68911320997687 0 0 0
1339 2 7.155425349381292 27.12811638270025 2.999223931898972 0 0 0
3357 3 10.446822282764689 27.662565583046085 0.06216061529818809 0 0 0
1342 2 9.49219504161168 25.36316975031127 2.6009799121041857 0 0 0
182 1 8.874348057518455 26.057928310361362 3.1854364636635624 0 0 0
3355 3 15.101407177598869 26.97170085817602 0.10113024010505925 0 0 0
4395 4 17.29766685979316 27.473407229266822 3.317519592459509 0 0 0
1700 2 16.756314086968334 28.348959210259473 3.327453858363712 0 0 0
1699 2 18.008436522201123 27.425501964644997 2.6117419080578186 0 0 0
3573 3 19.961200749042224 27.75496765656068 0.13661723825251396 0 0 0
3571 3 25.213555679653563 27.34329828174692 0.3868121909008652 0 0 0
2061 2 29.40591307081719 25.537132293974178 3.4252700175688875 0 0 0
4540 4 28.454328587709252 25.14450075244243 3.3056124799400703 0 0 0
3789 3 29.507935192308604 26.99202713205237 0.01752252028159093 0 0 0
4683 4 36.069660466737986 27.41127149907834 3.6830082882661386 0 0 0
3787 3 33.950015762977785 26.996417724504845 0.4405770804351722 0 0 0
2419 2 36.05145676031184 27.434965007620235 2.6456295643091545 0 0 0
2709 3 37.86926753496718 27.336900235604666 0.24944455188640857 -1 0 0
3989 4 -17.55037634380334 30.957882599199554 0.9343885258260114 0 0 0
685 2 -17.43257098210305 30.905813406534094 1.9344214279081569 0 0 0
684 2 -16.846947871671016 30.472342639280548 0.3570111637340351 0 0 0
2708 3 -13.91028648748065 30.697457416230197 44.06355861972936 0 0 -1
2703 3 -11.292849293359888 29.31060098045102 2.8774328029044876 0 0 0
1045 2 -8.577818615113976 32.13883207628527 0.7155792695114662 0 0 0
4133 4 -8.896032294944524 31.18826298009088 0.5793035636077585 0 0 0
1044 2 -8.807639307134737 30.53475197761343 1.3079267854885643 0 0 0
4131 4 -3.89011133124275 32.031029640652704 2.866155255853576 0 0 0
1040 2 -3.8901964441813184 31.626192176243173 1.9128471797683306 0 0 0
4278 4 -0.40385794405731457 31.55823518529156 0.8739499809896488 0 0 0
1403 2 0.10084638802637108 30.81967545917592 1.2444786180857788 0 0 0
1406 2 -0.3198777367555374 32.49598466518723 1.2571787849540486 0 0 0
3140 3 4.458854553297478 31.27853766937169 0.12030710801805408 0 0 0
3135 3 6.329351605854399 29.58067285393077 3.2633655112536886 0 0 0
4422 4 9.017768212555104 32.058608140926886 0.8981808862603338 0 0 0
1766 2 9.829185305404458 32.46405357397217 1.2692797077421178 0 0 0
1763 2 8.161523792843942 32.45495274992406 1.2225051786810188 0 0 0
3349 3 10.623801951467003 29.894830079001974 3.542068049348814 0 0 0
5007 5 13.174746320866058 28.58901264124263 1.8216252104556165 0 0 0
3356 3 12.943405356054768 31.19846207000133 0.009262850823824928 0 0 0
3351 3 15.439247560672056 30.386597603256245 3.351562168621877 0 0 0
339 1 17.978904222291415 31.14105906383423 0.16486395549039828 0 0 0
2126 2 16.115589028271543 30.317121004706134 0.18696368232973265 0 0 0
2127 2 18.45575072710329 30.39924748511753 0.8125358776684971 0 0 0
4565 4 18.804879336792858 32.00894255918828 43.999085685554405 0 0 -1
2125 2 19.836649319864804 31.95919993769374 44.111033117533154 0 0 -1
3565 3 20.686082125482077 30.298165698562226 3.4903106029168534 0 0 0
5079 5 22.852983837358366 28.804391993595175 1.7393713335834742 0 0 0
3567 3 24.560241312965044 30.533104456086114 3.525000322193747 0 0 0
4710 4 27.754714327004283 32.097997855502825 0.05752279449927686 0 0 0
2486 2 28.668170137225164 32.48973301695586 0.02887223695933358 0 0 0
3781 3 29.078680480165794 30.135367502092034 3.299600419886259 0 0 0
5151 5 31.548973763648284 28.91995509367957 1.8339103702602555 0 0 0
3788 3 31.973576490349284 31.522633488463374 -0.021029508184794404 0 0 0
51 1 -18.566404879854627 31.6146464710358 0.4402514698107407 0 0 0
687 2 35.11695593050109 32.12316521869746 1.1199230769124373 -1 0 0
2743 3 -15.808410010362833 35.03204705360912 0.4245107713684694 0 0 0
50 1 -13.595675476827688 34.03283093002205 3.557362244437209 0 0 0
682 2 -13.200130125939596 34.94176403545129 3.0315808608565344 0 0 0
3987 4 -12.893892435340375 32.930428392076095 3.4622497827547334 0 0 0
680 2 -12.122524805203655 32.85200604241799 2.812603305643746 0 0 0
2961 3 -11.589694909498807 34.22173891315252 0.3245221201441372 0 0 0
2959 3 -6.941651248008747 34.68597031858389 0.2943552155303294 0 0 0
1042 2 -5.5885567057666785 33.21679811573301 2.517745334208546 0 0 0
122 1 -4.817285728630252 32.8728702668693 3.197381771478628 0 0 0
3177 3 -2.5514567487669955 35.01581286509947 -0.08661678534854067 0 0 0
1400 2 4.243214150000954 33.873457514782146 1.4694083568874494 0 0 0
1402 2 2.809589452225032 33.467223467587154 3.217168767503682 0 0 0
194 1 3.888504074009453 33.69327765867262 3.4106016894933573 0 0 0
1399 2 5.652535398147349 34.189273150556765 2.4257513303243883 0 0 0
4275 4 4.6547088382625486 34.04409642768591 2.3662041848393343 0 0 0
1761 2 15.210168297640168 34.97146308255516 2.8782134470522838 0 0 0
1758 2 14.509175463575039 33.61998747721662 2.104577808705124 0 0 0
4420 4 14.448478870641372 34.30042864734104 2.8265902597259935 0 0 0
1759 2 12.823018255304914 32.44065355254142 3.3276003880836433 0 0 0
3607 3 20.412038982841466 35.70520638962968 0.3178862242192296 0 0 0
2122 2 21.25128161316159 34.71171379224665 3.1889529529717664 0 0 0
338 1 22.144366463119677 34.09527936449177 3.4064937530730384 0 0 0
2121 2 22.433786448743504 33.651369364683255 1.4591546316880935 0 0 0
4564 4 22.667363702876223 33.43344769790182 2.3931836678870906 0 0 0
2118 2 23.52403208688679 32.86330479097822 2.4855145621900414 0 0 0
2480 2 29.450636807226854 33.467136534929075 3.1239554100703737 0 0 0
2483 2 27.030509337861165 32.67766097845315 0.4675255629527526 0 0 0
3818 3 26.682796248382832 33.80675928086011 3.4803699042877074 0 0 0
2479 2 30.470808345431003 34.744499942223435 2.6448571837194628 0 0 0
3823 3 29.429084173679833 35.772241265864395 -0.01896774071710293 0 0 0
4707 4 30.30828691836385 33.99651391621621 3.283746930905028 0 0 0
63 1 -22.76899130920981 39.074295542968414 44.09652556759197 0 0 -1
4013 4 -22.07421293191655 38.25552022395861 0.2283431555514867 0 0 0
4803 5 -18.442013500288738 36.26885513910548 1.6206082431682687 0 0 0
2744 3 -18.034631077442338 38.852336598206094 44.10273215815835 0 0 -1
1104 2 -14.798998363822601 38.6215048748709 1.294704085626692 0 0 0
2739 3 -16.041649052604225 37.46275020504528 3.296587942236549 0 0 0
2953 3 -11.74869856883639 37.34261983926327 3.6273484995575247 0 0 0
4875 5 -9.293825382095124 36.11142365720355 2.0086910334269796 0 0 0
2955 3 -7.522573457642992 38.05480719671245 3.484027463474566 0 0 0
207 1 -5.152441663713311 39.14781871390184 0.41439567095518837 0 0 0
1465 2 -5.495291696994791 37.41696631171015 1.3720248148750191 0 0 0
4301 4 -5.240695778633886 37.83475040157983 0.4551256385352779 0 0 0
3169 3 -2.8324338274646528 37.645404541567984 3.417663934660267 0 0 0
1467 2 -5.480603177065903 39.75430083447522 1.2198941925615192 0 0 0
4947 5 -0.24791866628986262 36.536480445666925 1.5421947987189812 0 0 0
3176 3 0.3083246351160325 39.31205632372661 0.11216681393112832 0 0 0
4445 4 4.267301368519795 38.12238915689255 0.8782795048978604 0 0 0
1825 2 3.7149273618331358 38.30477190107738 1.6761337058875154 0 0 0
279 1 4.307411825762824 38.7776540672891 44.11370178453451 0 0 -1
1824 2 5.017997771065055 37.42547254605929 0.9411423788273237 0 0 0
5019 5 8.936544268936185 36.75692072243898 1.679776717622802 0 0 0
351 1 12.97198164353798 38.42816699242711 0.16131048721075997 0 0 0
2187 2 11.942518587083296 38.04567251033591 0.2535803013445592 0 0 0
5091 5 17.98839045867898 36.61264537541119 1.99304667733171 0 0 0
3601 3 15.268785922795498 37.74186767746147 3.3621862256581134 0 0 0
2544 2 21.02524982615085 38.754395358086576 0.7930675107621176 0 0 0
3603 3 20.03865554672662 38.64051717238865 3.4660664008038173 0 0 0
3817 3 24.215650059104323 37.50919449854231 3.320947711454026 0 0 0
5163 5 26.641790658586213 36.66706454030993 1.6937074205409672 0 0 0
3824 3 26.594421349499363 39.24783380469592 -0.04648944433822489 0 0 0
4014 4 30.393405333335807 39.53104395419049 0.5136839856161632 -1 0 0
743 2 29.991888141069563 38.82237735027521 1.129038106053082 -1 0 0
744 2 32.11304596286408 37.80612239848956 1.1652163384640308 -1 0 0
2774 3 -22.52394459182347 41.60897929389399 3.5580162479971755 0 0 0
4012 4 -18.653606608478587 41.99032804320213 2.4509310780163007 0 0 0
741 2 -18.27676279158691 42.687736374194785 1.8108197473935141 0 0 0
62 1 -17.846758111163496 41.27427301756331 3.2085429549918003 0 0 0
738 2 -19.616838939306827 41.86367312507825 2.5827585863240174 0 0 0
742 2 -16.76235916246187 41.39509145614159 3.1089230585548027 0 0 0
4157 4 -14.29716333018182 39.411560370858226 0.9290403585096099 0 0 0
1105 2 -14.120170008558246 40.16119079377097 1.5689536529472397 0 0 0
2997 3 -16.32255914940872 42.750458921718035 -0.07924217291649192 0 0 0
2995 3 -11.997249278958023 42.38197740589784 0.04547115284419745 0 0 0
1100 2 -11.31899601942065 42.27329650380346 3.023508746157681 0 0 0
1102 2 -9.194163315048442 41.79729111613168 2.329861224484969 0 0 0
134 1 -9.35611641960067 41.855176390782184 3.3973937610151324 0 0 0
3213 3 -7.02792344031391 42.6192662348778 0.24660322121633532 0 0 0
4299 4 0.26493624422732687 42.47750089874473 3.3168005085087775 0 0 0
1459 2 1.0527377926278982 41.990762908742234 2.8345611466939564 0 0 0
3422 3 4.040170995527839 41.275731142304856 3.041922046394187 0 0 0
1827 2 3.541607943306378 39.56744937005918 44.0931719568262 0 0 -1
4444 4 7.544235129003052 40.8333896759429 3.3812126956994373 0 0 0
1821 2 6.672144827468891 40.83978244024599 2.8526953134689994 0 0 0
3427 3 6.602075974518095 42.55315278679174 44.127173190116366 0 0 -1
1822 2 8.411139092981479 41.93168832161988 1.9977189356336837 0 0 0
278 1 8.551908831940263 41.55329745533338 3.0029981654265923 0 0 0
4443 4 9.679084828499299 41.82237838377689 3.681444085795154 0 0 0
1820 2 10.220399128555476 42.663857456809794 3.4198643535608344 0 0 0
2183 2 14.009890640646795 40.08595971133538 0.6699871905274591 0 0 0
4590 4 13.23624322180717 39.52108012983669 0.8823423305069583 0 0 0
2186 2 12.565349633193224 39.82454950918119 1.543913402561898 0 0 0
2180 2 17.83590508825631 41.15121153964701 1.71907862987109 0 0 0
4587 4 17.27905410975431 41.544763254605336 2.4251826221776076 0 0 0
2179 2 16.276857068950907 41.4580200025818 2.382954119497772 0 0 0
350 1 17.900001428742797 41.8859052871098 3.5635357287940264 0 0 0
3861 3 19.826190667506836 42.91196262501975 -0.02222077747031566 0 0 0
4733 4 21.31031991278083 39.505435301751255 0.21723626617899677 0 0 0
2545 2 20.854313043441785 40.38243997352738 0.3825079311907232 0 0 0
3854 3 22.74629539915444 41.744379682869045 3.3571675768580964 0 0 0
2540 2 25.047824018779394 40.68920525441387 2.9700021301912494 0 0 0
4731 4 26.050737022498154 40.91804397801028 3.087066843891199 0 0 0
2539 2 26.68074134392805 40.262704845115806 2.65149175657066 0 0 0
746 2 29.75587615225169 40.30285444894155 0.2472353438138996 -1 0 0
4815 5 -22.960570357408525 44.28959426914736 1.545799597825728 0 0 0
2775 3 -20.950990496642245 45.71548083053534 3.4590046718852525 0 0 0
805 2 -18.240022134199666 44.9078033331719 -0.07108168811391051 0 -1 0
4887 5 -14.091881253514526 44.332186017426814 1.7888236268010873 0 0 0
2989 3 -16.708198072006525 45.334788364159905 3.3800449594340276 0 0 0
4182 4 -10.101480035414761 45.47963804584272 0.24746341590258764 0 -1 0
1163 2 -10.222745236574816 45.36126172121115 1.2584841868819914 0 -1 0
3205 3 -7.018383877004185 45.93595105790502 3.2004131030599954 0 0 0
4959 5 -4.76089623547236 44.25123842821844 1.6507763605494363 0 0 0
1527 2 -0.8884578034447355 46.798900374481676 1.7897234715274013 0 -1 0
1460 2 0.1751764899787433 43.47699158970743 3.173053490553216 0 0 0
5031 5 4.236490231494095 44.22186558466602 1.8185104527877405 0 0 0
1884 2 7.840849815184489 45.260707516596774 0.23548302493720158 0 -1 0
4469 4 8.509701272933725 45.86481171198255 0.7394061419700118 0 -1 0
1885 2 8.375342902872166 45.95430174612593 1.7384540440344531 0 -1 0
3637 3 10.896582920377439 45.62184871732966 3.4995643805245757 0 0 0
291 1 9.474547610408765 46.50475868031488 0.125470102598024 0 -1 0
1887 2 37.28534593776864 0.22304209592516278 0.6802235864003024 0 0 0
5103 5 13.61699714273943 44.118420779819964 1.3490077329378238 0 0 0
3639 3 15.53703111907444 45.41203944270397 3.4608383528604474 0 0 0
5175 5 22.14827498204254 44.40152265651753 1.5360239437991594 0 0 0
3853 3 19.993136524710316 45.582869148631666 3.521167439325566 0 0 0
3855 3 25.05589563878509 45.785146503714245 2.9624888366479376 0 0 0