LAMMPS (29 Aug 2024 - Development - 5b9cae1)
OMP_NUM_THREADS environment is not set. Defaulting to 1 thread. (src/comm.cpp:98)
  using 1 OpenMP thread(s) per MPI task
units         metal
atom_style    atomic
atom_modify   map yes
newton        on

boundary p p p

read_data structure.data
Reading data file ...
  triclinic box = (0 0 0) to (53.8902 46.670282 44.024) with tilt (-26.9451 0 0)
WARNING: Triclinic box skew is large. LAMMPS will run inefficiently. (src/domain.cpp:221)
  1 by 1 by 1 MPI processor grid
  reading atoms ...
  5184 atoms
  read_data CPU = 0.060 seconds

variable        temperature equal 300.0
variable        temperature2 equal 300.0

variable        tempDamp equal 100.0 # approx 0.1 ps

variable        pressure equal 1.00
variable        pressureDamp equal 500.0

variable        seed world 14218

mass            1 12.011   # C
mass            2 1.007    # H
mass            3 126.905  # I
mass            4 14.0061  # N
mass            5 207.200  # Pb

pair_style  grace
[GRACE] TF version: 2.16.2
[GRACE] Neighbour padding is ON, padding fraction: 0.01, max padding fraction before reduction: 0.2, max number of reduction(s): 10


pair_coeff * * /mnt/scratch2/q13camb_scratch/perovskites/CsPbI3_relaxed_structures/Grace/GRACE-1L-train/pero_1L_H100/restart_16_save/seed/1/saved_model C H I N Pb
[GRACE] Loading /mnt/scratch2/q13camb_scratch/perovskites/CsPbI3_relaxed_structures/Grace/GRACE-1L-train/pero_1L_H100/restart_16_save/seed/1/saved_model
[GRACE] Model loaded
[GRACE] Mapping LAMMPS atom type #1(C) -> ACE species type #5
[GRACE] Mapping LAMMPS atom type #2(H) -> ACE species type #12
[GRACE] Mapping LAMMPS atom type #3(I) -> ACE species type #13
[GRACE] Mapping LAMMPS atom type #4(N) -> ACE species type #18
[GRACE] Mapping LAMMPS atom type #5(Pb) -> ACE species type #22

neighbor 1.0 bin
neigh_modify delay 5 every 1

write_dump all custom out.0.lammpstrj id type x y z fx fy fz
WARNING: Calling write_dump before a full system init. (src/write_dump.cpp:88)

variable freq equal 100
variable dt equal 0.001

min_style cg
fix 1 all box/relax iso 0.0 vmax 0.005
minimize 1e-8 1e-8  100000 1000000

CITE-CITE-CITE-CITE-CITE-CITE-CITE-CITE-CITE-CITE-CITE-CITE-CITE

Your simulation uses code contributions which should be cited:

- Type Label Framework: https://doi.org/10.1021/acs.jpcb.3c08419

@Article{Gissinger24,
 author = {Jacob R. Gissinger, Ilia Nikiforov, Yaser Afshar, Brendon Waters, Moon-ki Choi, Daniel S. Karls, Alexander Stukowski, Wonpil Im, Hendrik Heinz, Axel Kohlmeyer, and Ellad B. Tadmor},
 title = {Type Label Framework for Bonded Force Fields in LAMMPS},
 journal = {J. Phys. Chem. B},
 year =    2024,
 volume =  128,
 number =  13,
 pages =   {3282–-3297}
}

CITE-CITE-CITE-CITE-CITE-CITE-CITE-CITE-CITE-CITE-CITE-CITE-CITE

Switching to 'neigh_modify every 1 delay 0 check yes' setting during minimization
Neighbor list info ...
  update: every = 1 steps, delay = 0 steps, check = yes
  max neighbors/atom: 2000, page size: 100000
  master list distance cutoff = 7
  ghost atom cutoff = 7
  binsize = 3.5, bins = 24 14 13
  1 neighbor lists, perpetual/occasional/extra = 1 0 0
  (1) pair grace, perpetual
      attributes: full, newton on
      pair build: full/bin/atomonly
      stencil: full/bin/3d
      bin: standard
WARNING: Energy due to 1 extra global DOFs will be included in minimizer energies
 (src/min.cpp:219)
Per MPI rank memory allocation (min/avg/max) = 5.72 | 5.72 | 5.72 Mbytes
   Step          Temp          E_pair         E_mol          TotEng         Press          Volume    
         0   0             -77071.466      0             -77071.466      3175.5492      110723.48    
        43   0             -77141.587      0             -77141.587      51.734629      114797.25    
Loop time of 4.61267 on 1 procs for 43 steps with 5184 atoms

99.4% CPU use with 1 MPI tasks x 1 OpenMP threads

Minimization stats:
  Stopping criterion = energy tolerance
  Energy initial, next-to-last, final = 
     -77071.4655981297  -77141.5858224168  -77141.5865344564
  Force two-norm initial, final = 659.86861 15.11944
  Force max component initial, final = 658.36913 10.987355
  Final line search alpha, max atom move = 0.00052768294 0.0057978396
  Iterations, force evaluations = 43 85

MPI task timing breakdown:
Section |  min time  |  avg time  |  max time  |%varavg| %total
---------------------------------------------------------------
Pair    | 4.1339     | 4.1339     | 4.1339     |   0.0 | 89.62
Neigh   | 0.45352    | 0.45352    | 0.45352    |   0.0 |  9.83
Comm    | 0.0072565  | 0.0072565  | 0.0072565  |   0.0 |  0.16
Output  | 0          | 0          | 0          |   0.0 |  0.00
Modify  | 0          | 0          | 0          |   0.0 |  0.00
Other   |            | 0.018      |            |       |  0.39

Nlocal:           5184 ave        5184 max        5184 min
Histogram: 1 0 0 0 0 0 0 0 0 0
Nghost:           6183 ave        6183 max        6183 min
Histogram: 1 0 0 0 0 0 0 0 0 0
Neighs:              0 ave           0 max           0 min
Histogram: 1 0 0 0 0 0 0 0 0 0
FullNghs:       330912 ave      330912 max      330912 min
Histogram: 1 0 0 0 0 0 0 0 0 0

Total # of neighbors = 330912
Ave neighs/atom = 63.833333
Neighbor list builds = 43
Dangerous builds = 23
write_data      data.relax nocoeff nofix
System init for write_data ...
unfix 1

thermo          ${freq}
thermo          100
thermo_style    custom step temp pe ke etotal press lx ly lz xy xz yz
restart         ${freq} restart.0 restart.2
restart         100 restart.0 restart.2

timestep        0.001

velocity        all create ${temperature} ${seed} dist gaussian
velocity        all create 300 ${seed} dist gaussian
velocity        all create 300 14218 dist gaussian

# NPT
dump            myDump3 all atom 100 out.2.lammpstrj
fix             1 all temp/csvr ${temperature2} ${temperature2} $(500.0*dt) ${seed}
fix             1 all temp/csvr 300 ${temperature2} $(500.0*dt) ${seed}
fix             1 all temp/csvr 300 300 $(500.0*dt) ${seed}
fix             1 all temp/csvr 300 300 0.5 ${seed}
fix             1 all temp/csvr 300 300 0.5 14218
fix             2 all nph tri ${pressure} ${pressure} $(500.0*dt)
fix             2 all nph tri 1 ${pressure} $(500.0*dt)
fix             2 all nph tri 1 1 $(500.0*dt)
fix             2 all nph tri 1 1 0.5
fix             3 all momentum 10000 linear 1 1 1

run             100000
Per MPI rank memory allocation (min/avg/max) = 4.612 | 4.612 | 4.612 Mbytes
   Step          Temp          PotEng         KinEng         TotEng         Press            Lx             Ly             Lz             Xy             Xz             Yz      
        43   300           -77141.587      200.9866      -76940.6        1921.791       54.543172      47.235772      44.557426     -27.271586      0              0            
       100   251.71475     -77131.583      168.63764     -76962.945     -96.827293      54.435799      46.539662      45.39527      -27.648896      0.6540243     -0.49395176   
       200   210.83049     -77099.742      141.24701     -76958.495     -584.32332      54.14777       45.831276      46.10815      -28.15464       1.1693478     -0.95366935   
       300   218.592       -77095.246      146.44688     -76948.8       -139.41749      54.13469       45.827769      45.720683     -28.398895      1.2355588     -0.94607193   
       400   231.26023     -77093.174      154.93402     -76938.24       186.06617      54.314675      46.139577      45.35096      -28.535406      1.1778596     -0.78431855   
       500   241.7556      -77092.9        161.96545     -76930.935      580.90452      54.258517      46.293165      45.149816     -28.375195      1.0007427     -0.57839563   
       600   253.20543     -77094.43       169.63633     -76924.794     -1432.6938      54.239049      46.389266      45.064927     -28.250276      0.84315751    -0.41649655   
       700   245.08903     -77084.167      164.1987      -76919.969      257.17395      54.256398      46.439206      45.006091     -28.180504      0.68394411    -0.28418679   
       800   261.7153      -77088.334      175.33756     -76912.997      60.418831      54.198254      46.488809      44.914994     -28.091736      0.59465812    -0.19586779   
       900   258.60037     -77082.3        173.2507      -76909.049      49.927909      54.284232      46.690981      44.769073     -28.066941      0.47989607    -0.12658617   
      1000   267.43478     -77083.863      179.16935     -76904.693     -60.144782      54.289783      46.824862      44.5651       -28.007159      0.41937891    -0.083462377  
      1100   272.50843     -77083.524      182.56848     -76900.956     -46.704509      54.242228      46.850479      44.561746     -27.906124      0.4534946     -0.016026095  
      1200   272.43053     -77081.868      182.51628     -76899.352     -569.05337      54.332853      46.865779      44.595718     -27.758744      0.42176555     0.0038455598 
      1300   274.24003     -77078.761      183.72857     -76895.033      520.82521      54.480531      46.813579      44.452068     -27.670473      0.25329162    -0.14089137   
      1400   278.95996     -77077.725      186.89071     -76890.834      137.10048      54.39757       46.883432      44.462685     -27.549259      0.17380294    -0.2053289    
      1500   279.55967     -77074.323      187.29249     -76887.031     -192.92804      54.288623      46.987601      44.467315     -27.508684      0.24044969    -0.052645132  
      1600   277.9433      -77071.301      186.2096      -76885.092     -195.086        54.334303      47.053387      44.417169     -27.616718      0.20114335     0.034157305  
      1700   277.52314     -77069.001      185.9281      -76883.073      20.971986      54.347945      47.080613      44.401184     -27.560298      0.23523636    -0.041120974  
      1800   289.91077     -77074.013      194.22726     -76879.786      803.86463      54.445084      46.966376      44.331461     -27.598849      0.20969909    -0.11016699   
      1900   283.14158     -77067.867      189.69221     -76878.175     -953.19157      54.688199      46.957798      44.401539     -27.576437      0.19740981    -0.10827753   
      2000   289.17481     -77069.119      193.73421     -76875.385      982.08195      54.318304      46.920262      44.473022     -27.172981      0.17946444    -0.088294496  
      2100   286.96294     -77067.575      192.25235     -76875.323     -849.37351      54.382951      47.092387      44.460267     -27.369048      0.0075754025   0.080149167  
      2200   288.62886     -77068.262      193.36844     -76874.893      588.15349      54.266758      47.279211      44.326149     -27.372819      0.035550298    0.21175316   
      2300   286.93558     -77068.159      192.23402     -76875.925      76.563672      54.060802      47.239812      44.491194     -27.065146      0.17366432     0.23239586   
      2400   284.25841     -77065.067      190.44044     -76874.627     -63.506964      54.184006      47.155522      44.503022     -27.104409      0.025487785    0.18514443   
      2500   286.41404     -77067.063      191.88461     -76875.178     -139.1932       54.286434      47.141764      44.38977      -27.208351     -0.037835206    0.12830696   
      2600   293.7055      -77068.425      196.76957     -76871.656     -201.66502      54.327171      47.176077      44.373066     -27.277609      0.071958703    0.053960384  
      2700   292.51459     -77065.811      195.97171     -76869.839      432.9071       54.320969      47.102033      44.382979     -27.259115     -0.04768265     0.039110655  
      2800   287.68927     -77062.157      192.73896     -76869.418      105.59835      54.415918      47.040994      44.31867      -27.270051     -0.16359258    -0.1128486    
      2900   293.87617     -77064.701      196.88391     -76867.817     -712.85479      54.567667      47.206954      44.17239      -27.097982     -0.0095013825  -0.21458981   
      3000   295.33155     -77065.758      197.85894     -76867.899     -9.6046629      54.540947      47.139689      44.161185     -27.113636     -0.15588861    -0.07719292   
      3100   292.98885     -77064.245      196.28944     -76867.955      829.34823      54.338077      47.143971      44.272833     -27.113973     -0.204238       0.085759494  
      3200   290.85978     -77063.484      194.86306     -76868.621     -76.535837      54.22905       47.22096       44.422698     -27.120338     -0.060541331    0.1478759    
      3300   290.23744     -77063.66       194.44612     -76869.214     -71.569511      54.251273      47.12432       44.478801     -27.277921      0.0442343      0.091607543  
      3400   294.7691      -77065.17       197.48213     -76867.687      17.326913      54.322902      47.184453      44.396151     -27.286653      0.17183402    -0.082976526  
      3500   292.95587     -77063.84       196.26735     -76867.573      486.05207      54.450348      47.187988      44.28172      -27.369788      0.12221788    -0.15496082   
      3600   293.99915     -77062.882      196.9663      -76865.916      205.65159      54.594167      47.030743      44.273526     -27.391232      0.12438961    -0.21240802   
      3700   290.55021     -77061.382      194.65566     -76866.726      176.5619       54.618781      47.014947      44.282663     -27.394651      0.040623588   -0.22024287   
      3800   293.58459     -77061.124      196.68856     -76864.435      59.020311      54.608525      47.069859      44.201741     -27.46602      -0.04528236    -0.13063885   
      3900   300.47971     -77066.228      201.30798     -76864.92       89.349567      54.510546      47.029182      44.318649     -27.492179      0.074784387   -0.024670724  
      4000   291.68148     -77061.221      195.41356     -76865.808     -135.79102      54.353796      47.043979      44.497079     -27.2961        0.19053812     0.014249745  
      4100   296.85388     -77064.74       198.87884     -76865.861      181.66774      54.404871      47.211588      44.24649      -27.258052     -0.015168393    0.059031349  
      4200   293.38549     -77064.043      196.55517     -76867.487      20.372131      54.559625      47.251074      44.123574     -27.235361     -0.11041138     0.13534558   
      4300   297.84667     -77064.169      199.54397     -76864.625     -300.62062      54.525916      47.004638      44.275946     -27.137683      0.027684678   -0.036017428  
      4400   296.56653     -77063.128      198.68633     -76864.442     -34.157481      54.544976      46.923661      44.433629     -27.356926     -0.13722347    -0.37423267   
      4500   296.16925     -77059.495      198.42017     -76861.075     -300.98424      54.713444      46.946939      44.294815     -27.460463     -0.10592708    -0.2145388    
      4600   302.45733     -77065.704      202.6329      -76863.071      62.352313      54.622059      47.120268      44.152022     -27.355069     -0.011123216   -0.083384731  
      4700   295.80581     -77062.305      198.17668     -76864.128     -65.159057      54.511207      47.098118      44.270477     -27.269803      0.017491874    0.012381119  
      4800   294.66156     -77059.251      197.41009     -76861.841      57.578669      54.381631      46.980906      44.502673     -27.210618     -0.01307951    -0.05571795   
      4900   294.07599     -77058.111      197.01777     -76861.094     -421.77397      54.442648      46.957068      44.481286     -27.228897     -0.035015183   -0.1797917    
      5000   301.56316     -77061.329      202.03385     -76859.295     -17.145474      54.5248        46.98279       44.361865     -27.258435      0.056920029   -0.16000906   
      5100   300.93107     -77062.53       201.61038     -76860.919     -89.372332      54.469242      47.04106       44.314836     -27.131244      0.18791602    -0.058672545  
      5200   299.30213     -77059.07       200.51906     -76858.551      249.89933      54.453352      47.078406      44.36106      -27.341509      0.06131228     0.034836935  
      5300   301.2902      -77060.654      201.85097     -76858.803      225.88426      54.622933      46.963406      44.406699     -27.557535      0.032670713   -0.017391091  
      5400   296.48501     -77058.778      198.63172     -76860.146      102.48221      54.553533      47.012959      44.376637     -27.328902      0.14207598    -0.24874929   
      5500   297.07674     -77059.042      199.02815     -76860.013     -154.70698      54.460147      47.044632      44.386456     -27.199125     -0.0062554409  -0.036628378  
      5600   297.44644     -77058.587      199.27583     -76859.311      318.81433      54.508236      47.049789      44.345642     -27.140008     -0.053396105    0.20518834   
      5700   303.24084     -77061.688      203.15782     -76858.531      16.616277      54.37563       47.061268      44.3572       -27.040777      0.031125729   -0.017496491  
      5800   299.22485     -77059.923      200.46728     -76859.456     -256.14335      54.425448      46.971725      44.468287     -27.21489       0.029430532   -0.096617374  
      5900   301.63299     -77062.33       202.08063     -76860.249      76.163033      54.212232      47.160297      44.502673     -27.149818      0.11274164    -0.021445965  
      6000   296.12184     -77059.653      198.3884      -76861.265      527.13014      54.190019      47.290731      44.357969     -27.206928      0.20164167     0.22831182   
      6100   302.20001     -77064.27       202.46051     -76861.81       34.553761      54.123932      47.181968      44.436213     -27.317788      0.1426248      0.22917721   
      6200   296.24996     -77060.345      198.47424     -76861.871     -23.712177      54.126596      47.063286      44.656471     -27.115239      0.075102277    0.075521468  
      6300   293.20046     -77058.614      196.43121     -76862.183     -350.13035      54.213443      47.114119      44.46284      -26.908749     -0.13818496     0.036643462  
      6400   296.04081     -77061.668      198.33412     -76863.334      336.72728      54.281586      47.143768      44.348746     -26.99242      -0.25531028     0.056914682  
      6500   298.67952     -77063.046      200.10193     -76862.944      184.79174      54.405354      47.017829      44.470438     -27.183567     -0.081819601   -0.0089282144 
      6600   295.52224     -77062.595      197.9867      -76864.608     -48.495539      54.313437      46.955961      44.543242     -27.180116     -0.050104917   -0.16159818   
      6700   295.74418     -77064.565      198.13539     -76866.429     -496.71752      54.268611      47.049547      44.500232     -27.091152     -0.12886961    -0.092834363  
      6800   295.75682     -77066.614      198.14386     -76868.47       105.0343       54.390642      47.102537      44.353088     -27.118566     -0.17739182     0.13617859   
      6900   293.23011     -77063.701      196.45107     -76867.25       316.26238      54.382892      47.217984      44.191527     -26.993026     -0.10499099    -0.056723035  
      7000   294.33708     -77060.702      197.19269     -76863.509     -180.30327      54.509318      47.077817      44.330966     -26.928292     -0.025906593   -0.12484909   
      7100   297.80832     -77062.397      199.51827     -76862.879      419.71836      54.342789      46.968562      44.347898     -26.980534     -0.05249354    -0.066149149  
      7200   298.24476     -77061.841      199.81066     -76862.031     -517.57579      54.425672      47.183953      44.293347     -27.185378     -0.017369115   -0.16919952   
      7300   302.18394     -77064.632      202.44974     -76862.182      392.07753      54.498178      47.041523      44.268017     -27.31819       0.0091139006  -0.094491247  
      7400   296.99108     -77062.194      198.97076     -76863.223      309.19522      54.497108      46.963732      44.332043     -27.411857      0.12992246    -0.15370999   
      7500   293.39115     -77061.154      196.55896     -76864.595     -69.022862      54.479538      46.942082      44.495458     -27.46054       0.1434172     -0.22096264   
      7600   292.85119     -77061.883      196.19722     -76865.686      50.379529      54.361958      46.872295      44.507583     -27.285266      0.078127129   -0.11983891   
      7700   295.09757     -77062.949      197.70219     -76865.247     -584.9296       54.584988      46.960634      44.357238     -27.223212      0.14174875     0.014530308  
      7800   289.36558     -77058.712      193.86201     -76864.85       198.49904      54.53429       47.079841      44.22273      -27.220699      0.14097249     0.080230413  
      7900   300.18911     -77065.496      201.11329     -76864.382      708.54557      54.392796      47.072286      44.279544     -27.287607      0.075535068    0.017428499  
      8000   302.2697      -77065.181      202.50719     -76862.674     -406.13033      54.408992      47.128556      44.374313     -27.314358     -0.01081286    -0.064560804  
      8100   299.02344     -77062.878      200.33235     -76862.545      21.546156      54.379322      47.166765      44.35974      -27.161601     -0.025714394   -0.098858685  
      8200   293.95573     -77061.64       196.93721     -76864.703     -87.09536       54.525995      47.021442      44.378252     -27.355962      0.0031081944  -0.012964409  
      8300   299.76961     -77061.257      200.83225     -76860.425      91.430067      54.51676       46.98989       44.404805     -27.443571      0.14358618    -0.23053384   
      8400   300.16094     -77061.599      201.09442     -76860.504      129.40554      54.563644      46.970554      44.278148     -27.543497      0.12310545    -0.28806768   
      8500   298.6607      -77059.122      200.08933     -76859.032     -26.680012      54.556945      47.082937      44.250715     -27.467172     -0.051673036   -0.081280965  
      8600   302.56749     -77059.23       202.7067      -76856.523     -96.17253       54.363113      47.20458       44.358706     -27.145994     -0.044365172    0.18228388   
      8700   304.46082     -77061.084      203.97515     -76857.109      174.43805      54.15507       47.107277      44.392946     -27.085194     -0.027504423    0.07683643   
      8800   300.61012     -77057.163      201.39535     -76855.767     -703.26461      54.321567      47.188478      44.563676     -27.311623      0.056888352   -0.037331398  
      8900   297.60233     -77057.819      199.38027     -76858.439      847.69654      54.393084      46.911624      44.384613     -27.358265      0.061536416   -0.050437773  
      9000   301.24401     -77060.705      201.82003     -76858.885     -591.42197      54.560127      46.967784      44.382338     -27.263029     -0.063027908   -0.20111311   
      9100   302.6746      -77059.104      202.77847     -76856.326      190.8091       54.536583      46.908832      44.434974     -27.242248     -0.21929478    -0.14394102   
      9200   302.0016      -77057.652      202.32758     -76855.324      90.750676      54.334545      46.953864      44.528777     -27.207735     -0.10613827    -0.11764759   
      9300   299.72903     -77057.263      200.80506     -76856.458     -566.07555      54.437411      47.094866      44.497248     -27.331781      0.1775902     -0.1243351    
      9400   303.42419     -77059.954      203.28066     -76856.674      505.55275      54.399002      46.964277      44.395011     -27.391905      0.15433243    -0.041562158  
      9500   298.21458     -77057.1        199.79045     -76857.309      358.80073      54.286489      46.98917       44.550322     -27.387673      0.10999067    -0.084927701  
      9600   298.50627     -77058.223      199.98587     -76858.237     -506.83116      54.527384      46.906871      44.510568     -27.440477      0.14305034    -0.047409265  
      9700   304.13941     -77061.581      203.75982     -76857.822      509.37724      54.478056      46.992045      44.326134     -27.305027      0.070171538   -0.20742878   
      9800   304.49397     -77061.717      203.99736     -76857.719     -76.91254       54.572991      47.040471      44.337771     -27.200588     -0.035572525   -0.23989323   
      9900   303.47494     -77060.727      203.31466     -76857.412      64.667229      54.664809      46.992019      44.343392     -27.095079     -0.075860125   -0.22824417   
     10000   299.21629     -77057.676      200.46155     -76857.215      158.7921       54.505128      46.991372      44.406471     -27.058706     -0.19068018    -0.21609442   
     10100   297.80917     -77057.339      199.51884     -76857.82      -149.47746      54.437921      47.01697       44.514587     -27.091241     -0.25172609    -0.0065304448 
     10200   299.26893     -77059.784      200.49682     -76859.287      390.604        54.33618       47.046311      44.498828     -26.920635     -0.067274248   -0.022597648  
     10300   302.43381     -77060.833      202.61714     -76858.215      162.58147      54.309104      47.091151      44.580906     -26.969436     -0.0013097556  -0.13730936   
     10400   296.22715     -77056.496      198.45896     -76858.037      38.824297      54.327759      46.896585      44.56182      -27.149811     -0.095897671   -0.099482306  
     10500   297.23559     -77059.259      199.13457     -76860.124      23.31153       54.421279      47.041118      44.396815     -27.276701      0.099611954   -0.16598658   
     10600   299.4093      -77058.413      200.59085     -76857.822     -12.040861      54.436245      47.140342      44.333995     -27.338099      0.29632944    -0.14630406   
     10700   304.79407     -77061.774      204.19841     -76857.576     -347.93941      54.318229      47.099124      44.442393     -27.332889      0.093454091    0.015318239  
     10800   299.74635     -77059.472      200.81666     -76858.655      632.63792      54.174375      47.044401      44.523432     -27.043296      0.043033597    0.0093507624 
     10900   300.08504     -77059.993      201.04358     -76858.95      -257.04757      54.308983      47.025375      44.442487     -26.912673     -0.011616032    0.010925985  
     11000   302.07136     -77060.539      202.37432     -76858.165     -432.8328       54.261153      47.13272       44.408625     -26.986033     -0.066689453   -0.022564807  
     11100   303.07315     -77061.382      203.04547     -76858.336      148.17581      54.090229      47.096419      44.521955     -27.065582      0.040537676    0.14690246   
     11200   302.71107     -77063.062      202.8029      -76860.26      -140.59002      54.034333      47.153663      44.585489     -26.953813      0.097869066    0.093966559  
     11300   294.28322     -77058.129      197.15661     -76860.972      503.49767      54.363657      47.012448      44.502148     -27.049873     -0.13020188    -4.6943758e-05
     11400   299.24635     -77062.406      200.48169     -76861.924     -122.2793       54.474305      47.035845      44.402091     -27.135782     -0.1685077     -0.11195011   
     11500   301.1805      -77063.771      201.77748     -76861.993     -451.31882      54.397254      47.004521      44.444664     -27.107969     -0.035554899   -0.1915393    
     11600   299.07347     -77060.72       200.36587     -76860.354      351.74238      54.465439      46.82255       44.543461     -26.980942     -0.09547399    -0.094470531  
     11700   298.76317     -77061.479      200.15798     -76861.321     -231.73559      54.292135      47.03875       44.499244     -26.659204     -0.2378941     -0.14775341   
     11800   302.41162     -77060.845      202.60227     -76858.243      403.53267      54.241124      47.068271      44.445449     -26.662957     -0.23485039    -0.060908825  
     11900   303.39781     -77062.394      203.26298     -76859.131     -382.27762      54.36766       47.098405      44.369606     -26.809872     -0.23680423     0.10580018   
     12000   304.62136     -77060.507      204.0827      -76856.424     -71.905536      54.446053      47.192008      44.301073     -26.799816     -0.2773062      0.0035024872 
     12100   304.22337     -77060.821      203.81607     -76857.005      329.55821      54.458445      47.093401      44.25881      -26.837779     -0.21448671    -0.1528936    
     12200   300.64905     -77056.822      201.42143     -76855.4       -91.177727      54.529296      47.052783      44.341342     -26.934967     -0.05112001    -0.043582757  
     12300   305.18777     -77060.521      204.46217     -76856.059     -239.55473      54.412646      47.213402      44.210459     -27.018746      0.0027654715   0.052143928  
     12400   312.78894     -77064.345      209.55462     -76854.79       159.18947      54.34049       47.208253      44.290848     -27.153022     -0.17138084     0.060808298  
     12500   302.93088     -77057.878      202.95016     -76854.928     -23.706257      54.383524      46.989282      44.472957     -27.232458     -0.0058856669  -0.0089356017 
     12600   298.27565     -77055.436      199.83136     -76855.605     -11.373336      54.337576      47.035951      44.486643     -27.265729      0.13125826    -0.08960415   
     12700   300.25283     -77056.4        201.15598     -76855.244     -405.37398      54.372531      47.178647      44.376397     -27.360774     -0.026165525   -0.092605322  
     12800   305.31591     -77056.564      204.54802     -76852.016      487.80311      54.431319      47.08444       44.300775     -27.338047     -0.026931259    0.076423072  
     12900   307.53461     -77056.956      206.03445     -76850.921      132.85664      54.271475      47.143005      44.386496     -27.246288      0.033930758    0.18789492   
     13000   308.33643     -77060.76       206.57164     -76854.189      7.614116       54.19466       47.272273      44.423236     -27.342669      0.027223979    0.20887194   
     13100   301.29744     -77054.463      201.85583     -76852.607      203.05064      54.187159      47.111302      44.443962     -27.422636      0.030070579    0.23086091   
     13200   300.94291     -77056.883      201.61831     -76855.265     -172.54949      54.14384       47.181666      44.583066     -27.357678      0.11897102     0.098551736  
     13300   306.30881     -77059.616      205.21322     -76854.403     -450.72585      54.325202      47.015994      44.579474     -27.364241      0.17376215     0.071255341  
     13400   302.87698     -77057.869      202.91404     -76854.954      383.17186      54.39082       46.900498      44.504446     -27.336806      0.19082353    -0.052549541  
     13500   301.10411     -77056.312      201.7263      -76854.586     -170.16653      54.438653      47.082695      44.448941     -27.381327      0.022164659   -0.25852242   
     13600   302.69005     -77058.202      202.78881     -76855.413     -209.19582      54.517577      46.949646      44.347858     -27.228232     -0.072714434   -0.18169132   
     13700   299.10017     -77056.302      200.38375     -76855.919      586.69903      54.362659      47.12591       44.329639     -27.021318      0.0071578217  -0.10872814   
     13800   308.24249     -77059.902      206.5087      -76853.393     -1034.7725      54.278151      47.265472      44.302224     -27.144589     -0.068669311   -0.035462297  
     13900   304.14977     -77060.903      203.76676     -76857.136      963.77469      54.348556      47.033592      44.313551     -27.308447     -0.015818263    0.0072946033 
     14000   301.77151     -77061.006      202.17344     -76858.833     -1018.0833      54.362402      47.176068      44.333984     -27.179742      0.095103596   -0.014366888  
     14100   301.60676     -77062.708      202.06306     -76860.645      311.52947      54.302144      47.123693      44.30458      -26.971663      0.097917523    0.23765033   
     14200   296.9255      -77059.983      198.92682     -76861.056     -284.59787      54.275593      47.179864      44.336995     -27.023959     -0.18805828     0.27488158   
     14300   302.59744     -77065.409      202.72677     -76862.682      143.08007      54.195354      47.134348      44.391344     -27.083791     -0.15337435     0.19581561   
     14400   297.27329     -77060.716      199.15983     -76861.556      39.400221      54.32467       47.07618       44.416107     -27.09326       0.040499407    0.095553527  
     14500   294.84671     -77061.093      197.53412     -76863.559      396.37048      54.291344      47.144561      44.255995     -27.082274     -0.098086782   -0.046081839  
     14600   297.75989     -77061.916      199.48582     -76862.43      -67.162653      54.406944      47.187971      44.243132     -27.132353     -0.13417806    -0.026908181  
     14700   300.51173     -77062.763      201.32944     -76861.433      399.30422      54.374469      46.98439       44.347214     -27.156624      0.013577586    0.028399363  
     14800   299.13088     -77062.146      200.40433     -76861.742     -416.69265      54.323069      47.001915      44.447628     -27.238166      0.10122081    -0.15491975   
     14900   295.74752     -77063.069      198.13763     -76864.932      130.28897      54.423094      47.049573      44.32996      -27.42384       0.0098036434  -0.19469611   
     15000   298.47312     -77063.389      199.96366     -76863.425      15.150623      54.50511       46.953142      44.377819     -27.298776      0.034578184   -0.12789419   
     15100   297.66924     -77061.998      199.42509     -76862.572     -87.309013      54.325345      46.917691      44.494265     -27.055011     -0.039362949   -0.26139245   
     15200   300.3412      -77062.494      201.21519     -76861.279      389.15704      54.528322      46.844066      44.453557     -27.165109     -0.097820221   -0.30039742   
     15300   297.8084      -77060.725      199.51833     -76861.207     -232.60066      54.68425       46.843149      44.398274     -27.212324      0.00074599096 -0.24204834   
     15400   304.24571     -77063.416      203.83103     -76859.585      232.7869       54.402863      46.969926      44.427881     -27.083636      0.030743586   -0.12958593   
     15500   302.13461     -77064.495      202.41669     -76862.078      125.52632      54.277601      47.05428       44.417621     -27.209272      0.085630061    0.14950728   
     15600   297.13719     -77062.568      199.06865     -76863.499     -655.58256      54.321736      47.141616      44.384619     -27.399019      0.16148126     0.25951353   
     15700   293.08472     -77061.48       196.35367     -76865.126      535.15793      54.172947      47.158276      44.425824     -27.242245      0.12795796     0.062882245  
     15800   294.0028      -77063.686      196.96874     -76866.717     -54.897508      54.400728      47.092379      44.293964     -27.351934      0.089290873    0.058885562  
     15900   296.25279     -77061.061      198.47613     -76862.585     -406.89179      54.424818      47.168033      44.207614     -27.285667      0.19342304    -0.062039621  
     16000   296.68735     -77062.772      198.76727     -76864.005      233.87964      54.414534      46.98674       44.333706     -27.347782      0.11392524    -0.090815605  
     16100   296.65037     -77062.413      198.7425      -76863.67      -39.515258      54.465396      46.892709      44.51832      -27.431539      0.037333753   -0.11186497   
     16200   299.17855     -77063.77       200.43627     -76863.334     -16.846203      54.240164      47.061671      44.475066     -27.230662      0.17788431    -0.15297549   
     16300   295.5621      -77060.448      198.01341     -76862.435     -106.45496      54.412796      47.12839       44.282605     -27.413491      0.14294491     0.10246139   
     16400   302.79403     -77065.26       202.85847     -76862.402     -20.014616      54.404965      47.052659      44.277639     -27.417675      0.13501793    -0.003599906  
     16500   300.47685     -77062.469      201.30607     -76861.163      76.585063      54.421926      46.994095      44.35678      -27.348377      0.026467283   -0.22060415   
     16600   300.79076     -77062.417      201.51637     -76860.901     -103.04703      54.505451      47.031539      44.299429     -27.284857     -0.075196982   -0.18931491   
     16700   298.33587     -77059.776      199.87171     -76859.905      402.12125      54.370518      47.162897      44.298606     -27.094217      0.025059204   -0.12664629   
     16800   299.53261     -77060.136      200.67347     -76859.462     -15.471924      54.35955       47.063349      44.277858     -27.1542        0.04153273     0.088146959  
     16900   303.20908     -77063.536      203.13654     -76860.4       -332.71729      54.361334      47.151854      44.404164     -27.275874     -0.010310355    0.24518159   
     17000   299.22815     -77060.973      200.46949     -76860.503     -24.766922      54.121157      47.204884      44.397414     -27.145416     -0.042085261    0.18033992   
     17100   296.3825      -77059.657      198.56303     -76861.094      498.79234      54.215258      47.112132      44.482817     -27.041739      0.068474848    0.16972664   
     17200   296.5288      -77060.478      198.66105     -76861.817     -441.32145      54.248913      47.089808      44.59491      -26.985191     -0.017800538    0.1108791    
     17300   296.71368     -77060.867      198.78491     -76862.082     -190.79018      54.164343      47.005951      44.5544       -26.880034     -0.12644889     0.1078494    
     17400   300.24734     -77063.318      201.1523      -76862.166     -242.75895      54.253091      47.115713      44.49869      -26.873743     -0.12503701     0.063263432  
     17500   298.80951     -77061.776      200.18903     -76861.587      137.45764      54.345127      47.125001      44.337143     -27.020639     -0.10174668     0.11491716   
     17600   298.19185     -77059.982      199.77522     -76860.207      1131.7436      54.298779      47.019818      44.353147     -27.102886      0.0637767      0.048175166  
     17700   299.4785      -77057.938      200.63722     -76857.301     -1291.167       54.423149      47.015725      44.572888     -27.310758      0.22847393    -0.070105195  
     17800   302.68647     -77056.822      202.78642     -76854.035      751.17629      54.36688       46.945213      44.321096     -27.333559      0.23859041    -0.13447174   
     17900   306.74445     -77057.855      205.50508     -76852.35      -449.75799      54.519363      47.147727      44.258594     -27.359318      0.12057962    -0.089512801  
     18000   300.45723     -77055.897      201.29292     -76854.605      69.516339      54.473036      47.063802      44.362511     -27.172697      0.018797906    0.01300906   
     18100   303.41272     -77056.951      203.27297     -76853.678      871.6535       54.332953      47.045136      44.313446     -26.934204     -0.084642214   -0.013031675  
     18200   298.33302     -77054.889      199.8698      -76855.019     -1058.9361      54.346704      47.21497       44.410606     -26.960902     -0.11469616     0.017808118  
     18300   304.39148     -77060.656      203.9287      -76856.727      171.96676      54.134942      47.114032      44.393801     -26.989441      0.026449944    0.13068288   
     18400   301.09939     -77061.885      201.72314     -76860.162     -215.37202      54.147316      47.241742      44.509829     -27.070762      0.14791678     0.1111716    
     18500   302.77849     -77062.365      202.84806     -76859.516      608.83492      54.244778      47.052723      44.483168     -27.223628      0.084354941    0.086127489  
     18600   300.9547      -77058.905      201.62621     -76857.279      376.48793      54.31069       46.964373      44.532282     -27.245733      0.0068189644   0.06507182   
     18700   302.283       -77060.027      202.5161      -76857.511     -695.30956      54.198134      47.244739      44.403843     -27.057678     -0.17722573     0.0067224318 
     18800   293.61978     -77056.366      196.71214     -76859.654      16.655881      54.198655      47.223672      44.418607     -26.899114     -0.066907663    0.11889005   
     18900   299.05551     -77059.922      200.35383     -76859.568      173.28896      54.16713       47.172521      44.433781     -26.958821      0.070958916    0.29794581   
     19000   299.36285     -77058.922      200.55974     -76858.362      335.98873      54.083667      47.314889      44.360424     -27.038483      0.097465627    0.34807651   
     19100   301.46581     -77060.97       201.96863     -76859.002     -581.66105      54.243444      47.360003      44.30526      -27.201608     -0.0095719691   0.25866903   
     19200   299.59127     -77060.379      200.71277     -76859.666     -102.89951      54.297124      47.268194      44.258494     -27.164325      0.083647592    0.11037446   
     19300   298.54724     -77056.962      200.01332     -76856.949      220.60657      54.398676      47.178453      44.332033     -27.217973      0.058145555    0.032199593  
     19400   301.01786     -77060.452      201.66852     -76858.783      100.93664      54.359165      47.1559        44.413659     -27.310865      0.022490547   -0.11572816   
     19500   302.11075     -77062.732      202.40071     -76860.332     -209.49331      54.300148      47.179306      44.34083      -27.300701      0.15671917     0.019799408  
     19600   298.26687     -77060.293      199.82548     -76860.468     -14.600688      54.276098      47.137152      44.41443      -27.317572      0.14674198     0.19084493   
     19700   299.26344     -77060.342      200.49314     -76859.849     -482.16584      54.076766      47.177113      44.55879      -27.092912      0.14221751     0.084216918  
     19800   298.88786     -77060.671      200.24151     -76860.429      815.5517       54.207975      47.210711      44.357429     -27.00948       0.14105619     0.13091357   
     19900   301.00848     -77061.241      201.66223     -76859.579     -272.93298      54.537174      47.237925      44.157082     -27.226759     -0.11596382     0.052123646  
     20000   300.31285     -77060.41       201.19619     -76859.213     -643.17112      54.446897      47.134968      44.256288     -27.044688     -0.16992258    -0.050700124  
     20100   294.00319     -77059.384      196.969       -76862.415      749.61411      54.285896      47.064612      44.380718     -27.007133     -0.15403407    -0.10547235   
     20200   295.40246     -77062.155      197.90646     -76864.248     -98.154953      54.399648      47.005232      44.346948     -27.170173     -0.037341247   -0.12884712   
     20300   291.39049     -77059.598      195.21861     -76864.379     -340.88905      54.452744      47.07364       44.391467     -27.304922      0.044605005   -0.24871481   
     20400   299.10109     -77063.191      200.38437     -76862.807      608.21505      54.386765      46.882845      44.420111     -27.39054       0.0083481301  -0.30718657   
     20500   298.7         -77061.033      200.11566     -76860.917     -650.02378      54.484463      46.86681       44.564108     -27.328087      0.11622342    -0.27706127   
     20600   299.61962     -77061.271      200.73176     -76860.54       75.332839      54.248009      46.999202      44.54869      -27.179571      0.076206119   -0.12830692   
     20700   300.00556     -77063.093      200.99032     -76862.102      276.23774      54.211594      47.140226      44.461547     -27.282481     -0.040316561    0.2386498    
     20800   299.53252     -77061.403      200.67341     -76860.729     -819.25426      54.220336      47.281354      44.398619     -27.198248      0.13355416     0.26652261   
     20900   295.28368     -77058.573      197.82688     -76860.746      836.86911      54.211471      47.089821      44.398625     -27.126521      0.072180726    0.11035051   
     21000   303.20745     -77059.174      203.13545     -76856.039     -456.87847      54.323769      47.037031      44.512884     -27.183564     -0.12842893     0.086594137  
     21100   303.07374     -77059.804      203.04587     -76856.758      448.19568      54.213074      47.112088      44.448629     -26.976407      0.031778445    0.020298734  
     21200   304.24632     -77061.098      203.83145     -76857.267      16.993949      54.362377      46.978781      44.442964     -27.058433      0.0009801113   0.09746049   
     21300   296.95771     -77059.054      198.9484      -76860.106     -496.76743      54.353142      47.021971      44.493247     -27.100201     -0.2216145      0.079366293  
     21400   298.55435     -77059.798      200.01808     -76859.78       466.76169      54.28918       47.147959      44.369948     -27.004943     -0.14098009     0.15101344   
     21500   301.42517     -77061.17       201.9414      -76859.228      32.934118      54.373143      47.250906      44.280321     -27.137051     -0.02915505     0.21280781   
     21600   301.0037      -77061.5        201.65903     -76859.841     -75.128184      54.326664      47.235691      44.286853     -27.308843     -0.0052091019   0.10106413   
     21700   297.76816     -77055.267      199.49137     -76855.775     -121.52506      54.323208      47.16333       44.37587      -27.395162      0.071142409    0.095748608  
     21800   301.32483     -77057.775      201.87418     -76855.9        74.044937      54.308469      47.272341      44.201597     -27.381223      0.12147493     0.019509058  
     21900   301.9852      -77058.871      202.3166      -76856.555     -101.88309      54.393057      47.405037      44.025224     -27.516409      0.099007275    0.030381149  
     22000   303.47253     -77060.409      203.31304     -76857.096      434.11988      54.405691      47.262645      44.149575     -27.579619      0.24607325     0.3613245    
     22100   301.15846     -77059.239      201.76272     -76857.476      43.546212      54.141919      47.346425      44.370914     -27.315779      0.25996127     0.33247354   
     22200   301.48118     -77062.377      201.97892     -76860.399     -27.080343      54.054935      47.235742      44.39122      -27.234033      0.14340566     0.12972819   
     22300   304.29184     -77063.102      203.86194     -76859.24      -374.96003      54.355133      47.104531      44.40881      -27.333066      0.12389212     0.082504664  
     22400   296.92667     -77057.212      198.9276      -76858.285      360.84584      54.313679      47.108795      44.296374     -27.1729        0.0814208     -0.091938939  
     22500   303.17464     -77061.428      203.11347     -76858.315      439.95308      54.385952      47.054265      44.37932      -27.135808     -0.021673171   -0.071110781  
     22600   302.35125     -77061.409      202.56183     -76858.847     -269.69379      54.372586      47.012462      44.44848      -27.172893     -0.036845479    0.032962909  
     22700   300.18017     -77058.853      201.10731     -76857.746     -264.34322      54.411924      47.05354       44.347747     -27.283578      0.13087713     0.053597524  
     22800   300.23405     -77061.182      201.1434      -76860.038     -85.120304      54.51862       47.152161      44.159248     -27.28678       0.15363307    -0.030521285  
     22900   297.43359     -77060.726      199.26722     -76861.459      443.79916      54.613621      47.071593      44.153902     -27.21367      -0.057502536   -0.081338872  
     23000   303.55893     -77064.672      203.37093     -76861.301      410.20499      54.443266      47.026095      44.242595     -27.074252     -0.21075713    -0.0532888    
     23100   298.6575      -77062.05       200.08719     -76861.963     -555.30055      54.241295      47.055789      44.50265      -26.880601     -0.051206892    0.13826743   
     23200   301.46575     -77064.39       201.96859     -76862.422     -121.60272      53.990332      47.080308      44.521246     -26.840161     -0.037567691    0.14948081   
     23300   292.75023     -77060.79       196.12958     -76864.66      -419.26514      54.248151      47.173721      44.361683     -27.089128     -0.11910691     0.092917332  
     23400   296.6105      -77062.972      198.71579     -76864.256      938.50158      54.324017      47.237456      44.152048     -27.040277      0.026052642   -0.0054156147 
     23500   297.98769     -77066.065      199.63844     -76866.427     -666.19522      54.398878      47.209658      44.231717     -27.149175      0.021049962   -0.015601697  
     23600   298.58641     -77066.463      200.03956     -76866.423     -276.93569      54.37343       47.142183      44.308896     -27.363244      0.056181901   -0.09156996   
     23700   299.74469     -77065.389      200.81555     -76864.573      96.01093       54.446134      47.033528      44.228934     -27.474364      0.16616017    -0.057761568  
     23800   296.17498     -77062.923      198.424       -76864.499     -41.468601      54.366111      47.112448      44.29683      -27.397672      0.050467141   -0.0095063219 
     23900   298.03814     -77061.181      199.67224     -76861.508     -30.969735      54.141817      47.174699      44.418766     -27.034875     -0.024503854    0.025328536  
     24000   297.02802     -77059.089      198.99551     -76860.093      132.48946      54.200693      47.141492      44.345965     -26.881676     -0.15973404     0.22129082   
     24100   299.61583     -77061.745      200.72922     -76861.016     -175.89431      54.14609       47.191435      44.469257     -26.883911     -0.25819433     0.21191363   
     24200   298.99487     -77061.459      200.31321     -76861.146      621.51308      54.016547      47.140863      44.453722     -26.854652     -0.044303892    0.17814858   
     24300   297.96213     -77061.788      199.62132     -76862.167     -218.78044      54.157651      47.201275      44.427368     -27.087335     -0.037358989    0.17798461   
     24400   299.94895     -77063.114      200.9524      -76862.162      278.01239      54.070315      47.134098      44.468302     -27.095114     -0.004739698    0.17525505   
     24500   300.01697     -77061.699      200.99797     -76860.701     -280.3233       54.096088      47.142189      44.499527     -27.021372      0.14741277     0.16222731   
     24600   302.47512     -77060.772      202.64482     -76858.127     -498.22035      54.331015      47.101784      44.41345      -27.310098      0.079215535   -0.0027161159 
     24700   302.77854     -77059.349      202.8481      -76856.501      861.82206      54.40046       47.085658      44.236866     -27.416068      0.041977101   -0.19820962   
     24800   302.7514      -77059.791      202.82991     -76856.961     -931.04346      54.361977      47.206017      44.379333     -27.252431      0.052428659   -0.081210205  
     24900   299.9066      -77058.003      200.92402     -76857.079     -111.75888      54.32913       46.986464      44.43851      -27.109105     -0.044381024    0.076606016  
     25000   299.51454     -77058.819      200.66136     -76858.158      548.27211      54.321871      46.971997      44.423122     -26.952302     -0.062660288    0.047704648  
     25100   305.91412     -77063.833      204.94879     -76858.884     -637.86247      54.341041      47.003763      44.444358     -27.044777     -0.14386613     0.017583196  
     25200   304.5555      -77063.348      204.03858     -76859.31       732.6143       54.373055      46.835872      44.455846     -27.303797     -0.0669711      0.041075341  
     25300   299.76579     -77060.398      200.82969     -76859.568     -318.89714      54.205256      47.034359      44.477279     -27.191551      0.16715683    -0.19560435   
     25400   300.15989     -77059.594      201.09372     -76858.5        218.90151      54.424074      46.870761      44.438697     -27.289239      0.078511242   -0.11448504   
     25500   295.76011     -77058.22       198.14606     -76860.074      579.24493      54.399707      46.843409      44.479523     -27.272184     -0.083394769   -0.11635231   
     25600   302.5436      -77062.153      202.6907      -76859.463     -23.091131      54.319946      46.932082      44.478781     -27.155727     -0.085242149   -0.21515833   
     25700   297.49699     -77059.354      199.3097      -76860.044      156.37822      54.438124      46.830993      44.496825     -27.204731     -0.10558328    -0.1650635    
     25800   302.60312     -77060.885      202.73057     -76858.154     -570.89479      54.202879      47.049935      44.519307     -27.096083     -0.11432002    -0.096884665  
     25900   305.2776      -77062.97       204.52235     -76858.448     -269.19492      54.084431      47.115851      44.62899      -26.904493     -0.021609797    0.23462689   
     26000   303.96384     -77061.108      203.64219     -76857.465      146.43036      54.138835      47.07736       44.490047     -26.959049     -0.18846054     0.11658997   
     26100   294.51502     -77056.724      197.31191     -76859.413      207.32894      54.28835       47.077662      44.361575     -27.072538     -0.215458      -0.027765866  
     26200   301.43642     -77062.494      201.94893     -76860.545      33.707283      54.370506      46.979034      44.367984     -27.157395      0.12586141     0.059469976  
     26300   300.40334     -77060.764      201.25682     -76859.508     -647.31422      54.394833      47.107019      44.329514     -27.433278      0.26026007     0.011139016  
     26400   300.54653     -77061.362      201.35275     -76860.009      121.84166      54.44514       47.050482      44.306763     -27.503613      0.19045465    -0.18227392   
     26500   301.14688     -77063.52       201.75496     -76861.765      25.788988      54.495694      46.928692      44.391578     -27.468504      0.057133267   -0.23852515   
     26600   300.21996     -77062.756      201.13396     -76861.622     -84.73915       54.359538      47.083321      44.390067     -27.33697       0.016071307   -0.13806305   
     26700   296.91748     -77059.665      198.92145     -76860.743     -503.1226       54.307832      47.084482      44.408363     -27.233248      0.058686984   -0.0060294741 
     26800   300.21711     -77063.482      201.13205     -76862.349      543.05802      54.25377       46.890206      44.463293     -27.270751      0.070073769   -0.03695142   
     26900   299.0304      -77063.728      200.33701     -76863.391     -567.96189      54.235068      46.939654      44.644951     -27.30651       0.20197263    -0.005890575  
     27000   294.44647     -77062.233      197.26598     -76864.967      852.99319      54.101699      47.014292      44.518815     -27.30266       0.14497716     0.071624105  
     27100   294.43568     -77061.446      197.25875     -76864.187     -579.9355       54.318823      47.040531      44.408        -27.212313      0.014852211    0.060874894  
     27200   301.82249     -77064.533      202.20759     -76862.325      296.0895       54.31878       47.041977      44.36673      -27.023379     -0.040135876   -0.039343718  
     27300   296.84824     -77062.545      198.87506     -76863.67      -680.08491      54.261438      47.085067      44.376695     -27.218894     -0.075443098   -0.071753199  
     27400   301.74182     -77066.227      202.15354     -76864.074      233.04864      54.454993      46.996754      44.308972     -27.400555      0.16536592     0.081902105  
     27500   295.18525     -77065.798      197.76093     -76868.038      80.469387      54.306908      47.124224      44.24636      -27.344246      0.22986398     0.0064004414 
     27600   291.52366     -77062.807      195.30783     -76867.5        233.65007      54.229177      47.201765      44.293655     -27.336447      0.10880924     0.17802161   
     27700   293.19613     -77062.416      196.42831     -76865.988      413.33696      54.107501      47.148895      44.414836     -27.312102      0.090289692    0.31515092   
     27800   297.99422     -77064.636      199.64281     -76864.993     -360.51935      54.129747      47.115655      44.477298     -27.299912      0.21383943     0.17618435   
     27900   300.19913     -77065.138      201.12001     -76864.018      95.260974      54.41044       46.923201      44.460282     -27.505524      0.15983503     0.091573736  
     28000   299.99834     -77064.838      200.98549     -76863.853      19.595356      54.43586       46.980738      44.348958     -27.474044      0.035605815   -0.12135527   
     28100   292.31854     -77061.138      195.84036     -76865.297     -233.87063      54.49427       46.97864       44.387087     -27.30736       0.11033159    -0.11317178   
     28200   297.65306     -77065.557      199.41425     -76866.143      242.74611      54.375036      46.879265      44.472494     -27.187509      0.048124619   -0.14284883   
     28300   292.98269     -77064.005      196.28532     -76867.72      -50.283528      54.189626      47.045167      44.470099     -27.215717     -0.097688282   -0.11188054   
     28400   300.69749     -77067.908      201.45389     -76866.454     -270.79238      54.138529      47.125329      44.440061     -27.172955      0.031505697    0.20431157   
     28500   293.8676      -77061.648      196.87816     -76864.769      340.47134      54.104342      47.146188      44.522671     -27.170411      0.087062908    0.28355689   
     28600   292.12205     -77061.18       195.70872     -76865.471     -32.676734      53.909431      47.056227      44.679442     -27.153908     -0.015663022    0.046355349  
     28700   298.34411     -77065.163      199.87723     -76865.286     -162.25468      54.164622      46.920397      44.554757     -27.16506       0.062100679   -0.039690064  
     28800   299.81687     -77065.198      200.86391     -76864.334      109.22626      54.279842      47.004698      44.371062     -27.154358      0.070762945   -0.097769562  
     28900   296.27257     -77062          198.48939     -76863.51      -111.19458      54.346787      47.048037      44.342317     -27.09084       0.05378297    -0.052653696  
     29000   300.293       -77062.898      201.18289     -76861.715      203.12824      54.219498      47.070242      44.337723     -27.040894     -0.14280435     0.016788106  
     29100   297.43788     -77063.324      199.2701      -76864.054      65.296993      54.155019      47.063661      44.451255     -26.878697     -0.20160141     0.022572548  
     29200   297.04496     -77062.203      199.00686     -76863.196     -341.17223      54.179372      47.023831      44.531822     -26.64351      -0.041978465    0.037601922  
     29300   293.44897     -77063.352      196.5977      -76866.754      278.72978      54.272325      46.912077      44.393475     -26.861471     -0.16032652    -0.043391212  
     29400   296.47455     -77064.638      198.62471     -76866.013      16.218509      54.456886      46.99104       44.319946     -27.1623       -0.24220542    -0.15318264   
     29500   293.54994     -77063.369      196.66535     -76866.703     -129.19895      54.303898      46.940192      44.408285     -27.036329      0.017666369   -0.043729005  
     29600   298.22105     -77065.351      199.79478     -76865.556     -255.92329      54.341764      47.028649      44.425471     -27.159481      0.058735928    0.081941847  
     29700   297.2758      -77064.642      199.16151     -76865.481      361.64273      54.332221      47.211928      44.207545     -27.353683      0.059238352    0.042281723  
     29800   296.32231     -77063.043      198.52271     -76864.521     -488.91292      54.427843      47.089016      44.245886     -27.402644      0.28486582    -0.033919757  
     29900   298.949       -77064.867      200.28247     -76864.585      427.0697       54.371823      46.943692      44.391267     -27.383074      0.27342991    -0.073761091  
     30000   297.41193     -77061.75       199.25271     -76862.497     -102.29849      54.388455      47.010038      44.398714     -27.304844      0.062901656   -0.084338487  
     30100   298.15008     -77064.735      199.74724     -76864.988     -239.29574      54.430135      47.092065      44.245048     -27.122887      0.096291599   -0.063913754  
     30200   299.13867     -77063.623      200.40955     -76863.214      326.56644      54.447429      47.060571      44.274018     -27.069973      0.018696042    0.030546497  
     30300   296.22148     -77061.414      198.45516     -76862.958     -173.80089      54.526977      47.073465      44.168645     -27.101864     -0.15981553    -0.030681975  
     30400   298.60679     -77062.867      200.05321     -76862.814      166.64579      54.613394      47.05451       44.110658     -27.111985     -0.08195877    -0.20331034   
     30500   298.46452     -77061.75       199.9579      -76861.792     -143.91721      54.649076      46.838988      44.291556     -27.172885      0.032960565   -0.13068815   
     30600   302.0428      -77062.631      202.35518     -76860.276      131.97764      54.377122      46.995949      44.326663     -27.143806      0.070155995   -0.13799564   
     30700   302.00098     -77061.1        202.32716     -76858.772     -115.78049      54.403807      47.095458      44.275011     -27.326843      0.05060166    -0.011901432  
     30800   297.04916     -77058.546      199.00967     -76859.537      140.21556      54.3679        47.085686      44.296213     -27.404589      0.091392017    0.093607935  
     30900   303.96641     -77061.624      203.64391     -76857.98      -248.78372      54.12433       47.325504      44.228877     -27.108877      0.056603626    0.059795442  
     31000   301.39736     -77060.837      201.92277     -76858.915     -318.83731      54.404828      47.173363      44.198732     -27.185455     -0.17050877     0.2759331    
     31100   301.53593     -77063.786      202.0156      -76861.77       389.66726      54.301873      47.093899      44.239642     -27.061094     -0.093801343   -0.0054974475 
     31200   300.21617     -77061.682      201.13142     -76860.551     -173.96577      54.431988      47.048307      44.263106     -27.094188      0.05733946    -0.15220383   
     31300   300.5025      -77061.296      201.32326     -76859.972     -278.22514      54.541156      47.06167       44.162985     -27.22248       0.0053835254  -0.048780743  
     31400   301.17256     -77062.14       201.77216     -76860.368      460.60726      54.377571      47.210665      44.126188     -27.147423     -0.073767639   -0.047565458  
     31500   299.14396     -77062.049      200.41309     -76861.636     -803.68916      54.456106      46.98329       44.342014     -27.143474      0.084073205    0.021874925  
     31600   301.78382     -77062.626      202.18168     -76860.445      160.09765      54.242415      46.93121       44.491069     -27.146769      0.0016068289  -0.092159052  
     31700   299.51284     -77061.452      200.66023     -76860.792      800.77834      54.221253      47.125061      44.373027     -27.177006     -0.088102957   -0.072270799  
     31800   300.38342     -77062.573      201.24347     -76861.33      -214.26674      54.413535      47.146873      44.239277     -27.186718      0.041328963    0.13223414   
     31900   299.16993     -77061.176      200.43049     -76860.746      250.6386       54.275596      47.135495      44.25983      -27.176466      0.011104129    0.065989453  
     32000   297.69359     -77061.278      199.44141     -76861.836     -330.50805      54.42847       47.065655      44.316726     -27.220522     -0.039365485    0.066522019  
     32100   306.58558     -77065.005      205.39864     -76859.606     -84.401126      54.317907      47.070367      44.317347     -26.991932     -0.11180383    -0.029110697  
     32200   300.41799     -77062.051      201.26663     -76860.784     -30.76997       54.370266      46.983049      44.414803     -26.904482     -0.22540462    -0.040616863  
     32300   303.27735     -77064.841      203.18227     -76861.659      53.317034      54.506997      46.921473      44.293462     -26.977711     -0.21129631    -0.044060963  
     32400   298.46966     -77062.172      199.96134     -76862.211     -721.54827      54.398511      47.201531      44.187055     -26.830561     -0.09677858    -0.19552262   
     32500   295.91141     -77060.839      198.24743     -76862.591      585.27557      54.625054      46.906841      44.173189     -26.918747     -0.3070859     -0.087848349  
     32600   296.93829     -77062.515      198.93539     -76863.58      -299.47247      54.483875      46.978099      44.3612       -26.887201     -0.32630822    -0.065123682  
     32700   299.36378     -77065.348      200.56036     -76864.788      622.62655      54.321437      47.085528      44.32857      -26.821171     -0.11004833    -0.085052729  
     32800   297.95723     -77065.293      199.61804     -76865.675      23.860645      54.471245      47.108527      44.18993      -27.115108     -0.039359781   -0.084051336  
     32900   295.17699     -77060.891      197.7554      -76863.136     -680.10592      54.601265      47.137725      44.230866     -27.39025      -0.093683819   -0.12907039   
     33000   294.48396     -77062.299      197.2911      -76865.008      345.75336      54.544547      47.053341      44.127236     -27.243439     -0.048625665   -0.19407317   
     33100   295.28268     -77062.387      197.8262      -76864.561     -194.90044      54.550857      47.066952      44.209921     -27.11517      -0.025553085   -0.21588165   
     33200   298.30764     -77064.114      199.85279     -76864.261     -213.97638      54.338234      47.045765      44.425502     -27.036315     -0.12107882    -0.10647972   
     33300   298.09881     -77064.337      199.71288     -76864.625     -480.22154      54.274499      47.060371      44.422498     -27.053553     -0.075582479    0.039429322  
     33400   294.06634     -77061.234      197.01131     -76864.223      249.00558      54.548339      47.102176      44.204832     -27.202359     -0.029946011    0.020474585  
     33500   297.87205     -77066.955      199.56097     -76867.394      70.998952      54.4376        46.975473      44.325446     -27.221716     -0.11813645    -0.21364748   
     33600   291.1198      -77060.881      195.03727     -76865.844      27.247436      54.419552      46.820314      44.508547     -27.148633     -0.012015081   -0.1365456    
     33700   296.24821     -77061.747      198.47307     -76863.274      132.52087      54.377917      46.896234      44.461704     -26.996623      0.099796087   -0.063856647  
     33800   298.39394     -77064.182      199.91061     -76864.272      311.44817      54.350428      47.02007       44.380911     -26.993912     -0.048895368   -0.19126789   
     33900   297.43752     -77063.09       199.26985     -76863.82       399.92276      54.464365      46.913654      44.380386     -27.081816     -0.16406428    -0.018290395  
     34000   297.99426     -77064.349      199.64284     -76864.706      201.62508      54.289237      47.09934       44.418322     -26.970821     -0.042858378   -0.095709457  
     34100   300.60488     -77064.993      201.39184     -76863.601      96.797047      54.393504      47.058442      44.298738     -27.04539       0.031891907   -0.021814483  
     34200   294.43633     -77062.182      197.25919     -76864.923      134.69863      54.455835      46.949492      44.331954     -27.1744        0.0062220636   0.055873811  
     34300   292.0524      -77059.937      195.66206     -76864.275     -322.15067      54.228077      47.128034      44.459729     -27.118881      0.032357779   -0.029977307  
     34400   294.66586     -77062.426      197.41297     -76865.013      321.5017       54.287521      47.018924      44.390977     -27.143228      0.10686414     0.1082433    
     34500   298.38116     -77064.795      199.90205     -76864.893     -391.9982       54.25165       47.123593      44.371127     -27.085663      0.15099433     0.18653701   
     34600   298.6224      -77064.327      200.06367     -76864.263     -260.75943      54.065347      47.305447      44.329163     -26.876441      0.075705091    0.15724716   
     34700   294.29016     -77061.834      197.16126     -76864.673      460.47661      54.286663      47.096053      44.337028     -27.000993      0.052744778    0.2488759    
     34800   295.80788     -77062.927      198.17807     -76864.749     -49.271208      54.300912      47.135275      44.236878     -27.21389       0.086030983    0.20518481   
     34900   296.96912     -77062.97       198.95605     -76864.014     -271.59936      54.101016      47.266377      44.429437     -27.236114     -0.0094090167   0.01512757   
     35000   299.98804     -77066.067      200.97859     -76865.088      464.64289      54.149176      46.949328      44.462202     -27.095871     -0.02065809    -0.02390086   
     35100   297.8415      -77064.479      199.5405      -76864.938     -120.85689      54.260402      47.036734      44.516314     -27.057466      0.012303584   -0.098654004  
     35200   298.46004     -77063.006      199.95489     -76863.051      45.470193      54.375602      47.078497      44.337318     -27.190374      0.014040395   -0.053906138  
     35300   298.68391     -77063.804      200.10488     -76863.699      431.2706       54.329813      47.133843      44.236055     -27.235626      0.041835504   -0.012375354  
     35400   297.03754     -77061.389      199.00188     -76862.387     -37.367058      54.313884      47.16108       44.347046     -27.215798     -0.0079414895  -0.085175217  
     35500   299.73858     -77061.765      200.81146     -76860.953      330.25538      54.354718      46.933707      44.312859     -27.077473      0.12969651    -0.17269348   
     35600   302.19458     -77061.463      202.45687     -76859.006     -801.03986      54.506443      47.010901      44.361337     -27.202673      0.081851636   -0.30997535   
     35700   297.37327     -77058.016      199.22681     -76858.789      834.81514      54.386121      46.857937      44.404551     -27.282417     -0.041913392   -0.27564058   
     35800   302.88174     -77060.72       202.91724     -76857.803     -30.096624      54.287887      46.965506      44.532452     -27.189661      0.054023117    0.015029034  
     35900   302.15188     -77060.946      202.42826     -76858.518     -438.98486      54.220097      47.071483      44.461175     -27.111088      0.11380577     0.080040621  
     36000   306.18091     -77064.355      205.12753     -76859.227      281.28488      54.368384      46.900167      44.432532     -27.278768      0.023789773    0.017738298  
     36100   302.98652     -77063.357      202.98744     -76860.369     -681.16256      54.384669      46.863819      44.52048      -27.396185     -0.020347481   -0.065075861  
     36200   300.79351     -77060.883      201.51822     -76859.365      878.83248      54.412486      46.876164      44.407988     -27.441909      0.17728416    -0.09328564   
     36300   297.93683     -77060.815      199.60437     -76861.211     -430.35147      54.354412      46.983769      44.32937      -27.495036      0.15734941    -0.12718989   
     36400   299.69171     -77059.932      200.78006     -76859.152      226.53306      54.361773      46.881929      44.434432     -27.477423      0.091305573   -0.12111883   
     36500   298.14766     -77060.055      199.74561     -76860.309      52.124894      54.542152      46.726098      44.417674     -27.345677      0.21769461    -0.18825985   
     36600   301.61751     -77060.723      202.07026     -76858.653     -331.21043      54.477443      46.905452      44.285372     -27.197058      0.021955983   -0.29432662   
     36700   298.17527     -77059.389      199.76411     -76859.625      300.84261      54.466499      46.959151      44.346944     -27.093115     -0.16070716    -0.037725809  
     36800   303.39437     -77062.512      203.26068     -76859.252     -405.53676      54.236067      47.023981      44.477339     -26.967397     -0.076230228    0.096959405  
     36900   295.10587     -77058.94       197.70775     -76861.232      477.96926      54.201304      47.120358      44.386236     -27.041328      0.082443612    0.13112607   
     37000   298.31125     -77059.612      199.85522     -76859.757      32.403721      54.393353      47.055438      44.406206     -27.184434      0.20097338     0.089066901  
     37100   298.92951     -77061.722      200.26942     -76861.452      3.3313381      54.317358      46.979406      44.426672     -27.286262      0.12548794    -0.094092886  
     37200   301.03577     -77062.503      201.68052     -76860.822     -44.499629      54.405662      47.044843      44.394076     -27.382745      0.077685918   -0.10109984   
     37300   296.46008     -77061.096      198.61501     -76862.481     -435.38523      54.305433      47.013663      44.492523     -27.246232      0.28559152    -0.022098622  
     37400   300.43455     -77061.856      201.27773     -76860.579      417.63215      54.199445      47.030782      44.503718     -27.346161      0.23033023     0.094310657  
     37500   298.49583     -77059.434      199.97887     -76859.455     -387.44566      54.156419      47.143487      44.478561     -27.367497      0.029428441    0.096324259  
     37600   301.54632     -77060.4        202.02256     -76858.377      108.17103      54.261289      47.042712      44.378522     -27.195567      0.085550625    0.028782953  
     37700   299.72044     -77058.527      200.79931     -76857.728     -183.6528       54.347615      47.157292      44.264494     -27.071737      0.0038845242  -0.069179004  
     37800   302.82977     -77059.358      202.88242     -76856.476      268.86167      54.236704      47.086555      44.384275     -26.965833     -0.21901718     0.08404213   
     37900   300.95544     -77059.077      201.6267      -76857.451      261.44568      54.197466      47.125428      44.35301      -26.83779      -0.17089559     0.15302025   
     38000   302.91        -77061.769      202.93617     -76858.833     -241.1599       54.248985      47.180781      44.354698     -26.906566     -0.18410726     0.0032185686 
     38100   304.15126     -77060.458      203.76776     -76856.69      -178.62488      54.111998      47.08571       44.466584     -26.966344     -0.21481032     0.087722211  
     38200   300.08242     -77055.76       201.04182     -76854.718     -76.482521      54.216585      47.049244      44.541636     -27.029936     -0.087455379    0.098280026  
     38300   302.2055      -77057.628      202.46418     -76855.164     -41.034329      54.319417      47.062876      44.422879     -27.128995      0.040553515    0.10687941   
     38400   301.14429     -77057.515      201.75322     -76855.762      358.13143      54.164406      47.161083      44.408342     -27.352787      0.10882416     0.10403952   
     38500   300.82093     -77056.87       201.53658     -76855.333     -57.813613      54.130889      47.102976      44.554121     -27.642229      0.1860301      0.16185269   
     38600   303.0914      -77057.117      203.0577      -76854.06      -122.9096       54.200446      47.062128      44.41578      -27.487266      0.19754446     0.16912997   
     38700   307.86895     -77059.611      206.25844     -76853.353      34.477562      54.20408       47.102304      44.454886     -27.245184      0.022235114    0.041652855  
     38800   298.8616      -77054.52       200.22392     -76854.296      0.60932307     54.237381      47.126982      44.560643     -27.22469      -0.040470351    0.092609707  
     38900   304.6185      -77056.267      204.08079     -76852.187      682.02049      54.167201      47.061903      44.497042     -27.27122       0.070688282    0.22336516   
     39000   305.90422     -77057.227      204.94216     -76852.285     -642.04984      54.11495       47.080191      44.657016     -27.296505      0.15409692     0.10205591   
     39100   303.43467     -77054.274      203.28768     -76850.986     -339.74169      54.082232      47.009514      44.605974     -27.37899       0.075874306    0.02738202   
     39200   302.52022     -77056.79       202.67503     -76854.115      369.7341       54.136809      46.942632      44.608782     -27.264924      0.036376929   -0.02125095   
     39300   304.92077     -77058.042      204.2833      -76853.759     -534.42663      54.255172      46.993658      44.660572     -27.109531      0.099779679   -0.026953105  
     39400   306.02307     -77058.05       205.02179     -76853.028      771.98832      54.261844      46.896004      44.533777     -27.146099      0.065840941    2.7928175e-05
     39500   298.89074     -77055.716      200.24345     -76855.473     -699.93392      54.403338      46.964143      44.531014     -27.379955     -0.062326671   -0.092165944  
     39600   302.48077     -77056.725      202.6486      -76854.077      127.93953      54.386372      46.892244      44.402322     -27.43123       0.093754464   -0.10259586   
     39700   304.00331     -77056.399      203.66864     -76852.731     -109.18757      54.340279      47.083171      44.381933     -27.320153      0.22773884     0.0013789406 
     39800   307.75146     -77058.795      206.17973     -76852.615     -394.08704      54.374085      47.09335       44.347819     -27.325704     -0.044185048    0.11646996   
     39900   304.3776      -77057.27       203.9194      -76853.35       1429.554       54.132116      47.016417      44.408243     -27.097801     -0.033710953   -0.06224594   
     40000   300.13284     -77055.862      201.0756      -76854.787     -460.29989      54.367311      46.914538      44.574424     -27.195208      0.11380343    -0.13611038   
     40100   300.07564     -77055.952      201.03728     -76854.914     -403.6908       54.37192       46.875086      44.46191      -27.232979      0.012918284   -0.22603403   
     40200   304.98385     -77060.624      204.32556     -76856.298      275.75117      54.239984      46.846093      44.590039     -27.110589     -0.065281618   -0.098730544  
     40300   297.26868     -77058.26       199.15674     -76859.103     -288.65978      54.300111      46.902683      44.671256     -27.129861     -0.033350646    0.1147478    
     40400   297.84238     -77059.806      199.54109     -76860.265      721.82675      54.267038      46.961485      44.442807     -27.16314       0.016147081    0.064099558  
     40500   302.13594     -77061.411      202.41759     -76858.994     -745.05214      54.376562      47.138861      44.37295      -27.256442      0.064174329    0.0049209254 
     40600   304.36801     -77061.725      203.91297     -76857.812     -108.8596       54.364712      47.211357      44.206282     -27.409525     -0.021251545   -0.0067881721 
     40700   303.6458      -77062.641      203.42913     -76859.211      233.54703      54.418019      47.126131      44.268864     -27.426396      0.059163191    0.085656683  
     40800   298.05178     -77058.996      199.68138     -76859.314     -410.45005      54.292786      47.084711      44.452117     -27.300773      0.16368435     0.10118757   
     40900   303.71515     -77060.441      203.47558     -76856.965      354.04559      54.136115      47.092923      44.391279     -27.281337      0.029708596    0.11543546   
     41000   297.37292     -77056.642      199.22657     -76857.415     -219.93823      54.313468      47.118765      44.458116     -27.310214      0.041167168    0.22590828   
     41100   301.26014     -77059.702      201.83083     -76857.871     -226.16061      54.303535      47.030599      44.390367     -27.171391      0.19502373     0.089339624  
     41200   304.39044     -77062.977      203.928       -76859.049      774.94964      54.322503      46.9939        44.378373     -27.365892     -0.068235986   -0.04665882   
     41300   293.96042     -77058.824      196.94035     -76861.884     -848.84727      54.372172      47.036509      44.412607     -27.304848     -0.056750353    0.015226989  
[...]
     89800   298.81652     -77068.309      200.19372     -76868.115     -1039.6921      54.375285      47.121347      44.194589     -27.27276      -0.027177579   -0.18035731   
     89900   294.87456     -77067.42       197.55278     -76869.867      528.7444       54.446979      46.846861      44.165526     -27.118184     -0.10085884    -0.02533731   
     90000   286.62822     -77061.92       192.0281      -76869.892     -250.48707      54.330217      47.01116       44.267993     -26.767718     -0.24000159    -0.18354053   
     90100   294.44198     -77067.078      197.26298     -76869.815      319.87613      54.390347      46.949017      44.238734     -26.829794     -0.24639787    -0.093939953  
     90200   299.39616     -77070.089      200.58205     -76869.507      154.50476      54.227374      46.981146      44.3751       -26.914307     -0.091779824    0.042542519  
     90300   293.38173     -77067.154      196.55265     -76870.601     -303.48898      54.096602      47.028309      44.392161     -26.998369      0.0070043595   0.14520972   
     90400   292.70245     -77066.474      196.09757     -76870.376     -222.72861      54.289566      47.050671      44.199737     -27.126709      0.046441402    0.15080516   
     90500   291.32541     -77067.832      195.17501     -76872.657      265.23859      54.427012      47.069922      44.075243     -27.238573      0.065472691    0.00055575181
     90600   289.28141     -77065.268      193.80562     -76871.462     -303.14346      54.253575      47.047183      44.2642       -27.236076      0.11165219    -0.11468976   
     90700   293.58562     -77069.276      196.68925     -76872.586      58.609629      54.140278      46.931492      44.481608     -27.204782      0.16793157     0.0154214    
     90800   292.00531     -77068.764      195.63052     -76873.133     -290.08078      53.939605      46.934888      44.550089     -26.997862      0.092556608    0.14795882   
     90900   294.27545     -77066.881      197.15141     -76869.729      341.50532      53.953626      46.955642      44.481736     -26.872253     -0.072233648    0.136962     
     91000   290.89754     -77064.865      194.88836     -76869.977     -10.829789      54.045504      47.053671      44.421244     -26.724366     -0.090738734    0.082704853  
     91100   298.18972     -77068.457      199.77379     -76868.683     -286.08471      54.186119      46.97282       44.294723     -26.73869      -0.11006739     0.10107477   
     91200   295.12607     -77069.244      197.72129     -76871.522     -131.2088       54.21415       46.91385       44.288603     -26.894915     -0.16142782    -0.094668183  
     91300   293.34663     -77067.583      196.52914     -76871.054      102.61729      54.211032      46.854737      44.455484     -27.045213     -0.14702979    -0.2041943    
     91400   291.63687     -77066.988      195.38367     -76871.605      113.19994      54.243163      46.844131      44.409228     -27.122672      0.057441057   -0.063722818  
     91500   288.71848     -77065.789      193.42848     -76872.36      -193.89556      54.218661      47.125743      44.208543     -27.213933      0.14871435    -0.023897879  
     91600   289.1691      -77064.477      193.73038     -76870.746     -43.168387      54.327072      47.033525      44.148808     -27.265542     -0.021051637    0.057722802  
     91700   296.87468     -77070.348      198.89278     -76871.455     -204.98127      54.355128      46.846292      44.257965     -27.127465     -0.11383542    -0.16615968   
     91800   293.85164     -77069.246      196.86747     -76872.378      527.55341      54.417647      46.795745      44.333806     -26.973836     -0.079847591   -0.27941164   
     91900   288.39547     -77063.513      193.21209     -76870.301     -668.07404      54.286738      46.755804      44.417353     -26.956118     -0.10480886    -0.13359009   
     92000   295.72214     -77068.82       198.12063     -76870.699      437.19497      54.132106      46.949824      44.389437     -27.042701     -0.047634772   -0.0683804    
     92100   293.54643     -77068.779      196.663       -76872.116     -485.72463      54.197325      47.017002      44.268031     -27.098755      0.072426132    0.059662215  
     92200   291.66262     -77067.708      195.40093     -76872.307     -64.936879      54.299202      47.148578      44.181955     -27.140374      0.067756785    0.1162912    
     92300   294.11947     -77068.726      197.04691     -76871.679      308.92232      54.172278      47.256265      44.101033     -26.950903      0.069434217    0.085558181  
     92400   292.85424     -77064.285      196.19926     -76868.085     -141.68017      54.158674      47.217713      44.241105     -26.853083     -0.17590375     0.23391635   
     92500   295.24592     -77064.707      197.80158     -76866.905      59.492727      54.009221      47.151978      44.35242      -26.720177     -0.25636885     0.13952118   
     92600   297.20547     -77066.237      199.11439     -76867.123     -137.89369      54.205648      47.127286      44.297406     -26.839503     -0.083970897    0.00076842763
     92700   294.83825     -77062.91       197.52846     -76865.382      365.40301      54.342738      47.058807      44.157565     -27.006962     -0.045899852    0.11218515   
     92800   299.07653     -77063.361      200.36792     -76862.993     -25.121103      54.201364      47.25714       44.185736     -27.057884     -0.14308317     0.11300847   
     92900   297.2745      -77060.981      199.16064     -76861.821      90.703817      54.210859      47.107899      44.246107     -27.206525     -0.0044346046   0.086313487  
     93000   302.03071     -77062.19       202.34709     -76859.843      56.354684      54.438318      47.030293      44.148984     -27.461501      0.14515402    -0.14012773   
     93100   302.99283     -77062.175      202.99166     -76859.183     -2.4219097      54.537701      47.01548       44.159122     -27.518149     -0.016163931   -0.25539995   
     93200   299.58612     -77059.759      200.70932     -76859.049      132.32559      54.400983      46.954568      44.245535     -27.191419     -0.17669563    -0.22414981   
     93300   304.43277     -77060.801      203.95636     -76856.845     -3.8319887      54.357388      47.088425      44.242572     -26.932663     -0.12012889    -0.083225713  
     93400   299.1116      -77057.417      200.39141     -76857.026     -736.93331      54.217752      47.123334      44.338006     -26.904794     -0.042799083    0.033406339  
     93500   305.47152     -77062.243      204.65227     -76857.591      652.62486      54.215017      46.940413      44.394657     -26.978576     -0.0080511189  -0.071406486  
     93600   303.35256     -77061.795      203.23267     -76858.562     -462.76053      54.43782       46.927468      44.379567     -27.119481      0.035689485   -0.15435385   
     93700   303.24785     -77061.079      203.16251     -76857.916      670.24162      54.226763      46.946714      44.345998     -27.08784      -0.028362455   -0.19604008   
     93800   302.76532     -77060.992      202.83924     -76858.152     -1014.1041      54.275877      46.977292      44.425427     -27.193319     -0.014399657   -0.094738154  
     93900   302.26913     -77060.213      202.50682     -76857.707      1026.2475      54.20069       47.051177      44.252179     -27.155585      0.037854246   -0.10277474   
     94000   297.05048     -77055.748      199.01055     -76856.737     -471.95123      54.210799      47.134694      44.345493     -27.051312     -0.10791179    -0.10149062   
     94100   302.64751     -77059.624      202.76032     -76856.864     -173.01633      54.218385      46.959476      44.488424     -26.818904     -0.25015241    -0.0081557571 
     94200   305.32286     -77061.355      204.55268     -76856.803      19.977402      54.210069      46.959884      44.414283     -26.714427     -0.25091385    -0.11721223   
     94300   300.23664     -77058.954      201.14514     -76857.809     -366.18147      54.38309       47.080811      44.276178     -27.012857     -0.31990841    -0.057494147  
     94400   305.32185     -77062.189      204.552       -76857.637      606.71548      54.336512      46.93546       44.250605     -27.102856     -0.064050212    0.028181918  
     94500   299.22242     -77057.965      200.46566     -76857.5       -356.79113      54.328874      46.933708      44.390654     -27.269276      0.028115696   -0.12722949   
     94600   302.16022     -77061.083      202.43385     -76858.649      91.228998      54.217192      46.940443      44.361224     -27.321363     -0.13119442    -0.20900706   
     94700   304.44081     -77063.702      203.96175     -76859.741      162.18306      54.258973      46.840751      44.378348     -27.139806     -0.014379801   -0.072318302  
     94800   299.45237     -77061.589      200.61971     -76860.969      58.993304      54.188961      46.929332      44.436725     -27.063664      0.066503126   -0.18755556   
     94900   303.50275     -77064.435      203.33328     -76861.102     -177.012        54.13086       46.945149      44.341102     -27.082753     -0.068570069   -0.19324538   
     95000   300.33342     -77062.638      201.20998     -76861.428     -94.276524      54.191334      46.920033      44.4763       -27.005961     -0.22414949     0.054540922  
     95100   300.7075      -77062.579      201.46059     -76861.118      81.428654      53.883809      47.141342      44.441172     -26.765364     -0.22594155    -0.012676783  
     95200   300.33995     -77063.13       201.21435     -76861.916     -487.51342      54.015055      47.084657      44.395934     -26.83133      -0.1653241      0.15377183   
     95300   296.40854     -77060.281      198.58048     -76861.7        487.7622       54.126967      47.142428      44.32637      -27.01431      -0.049689726    0.042168549  
     95400   302.24911     -77065.541      202.4934      -76863.047     -281.35522      54.217868      47.155949      44.174861     -27.183634      0.013219704   -0.1345656    
     95500   299.13613     -77062.921      200.40784     -76862.514     -139.39406      54.243487      47.092177      44.236143     -27.149006     -0.033043404   -0.04923905   
     95600   301.67621     -77063.882      202.10959     -76861.773      238.97212      54.09131       47.142538      44.290749     -26.97537      -0.12756261     0.12338758   
     95700   301.91508     -77063.079      202.26962     -76860.809     -218.77069      54.218297      47.204506      44.208171     -27.042748     -0.097551718    0.1181989    
     95800   296.58561     -77060.48       198.69911     -76861.781      239.58952      54.332252      47.190887      44.108935     -27.311315      0.047094275    0.058491421  
     95900   298.96957     -77062.901      200.29626     -76862.605      246.70059      54.232054      47.14882       44.20542      -27.402636      0.14167209     0.076249875  
     96000   298.4477      -77060.481      199.94663     -76860.534     -473.50354      54.20361       47.194298      44.393011     -27.324305      0.11207138     0.039972108  
     96100   301.21311     -77063.348      201.79933     -76861.548      437.58799      54.238258      47.006211      44.253201     -27.297913      0.019016587   -0.024918348  
     96200   303.19228     -77062.286      203.12529     -76859.161     -853.13084      54.391664      47.130586      44.301771     -27.343722      0.052610316   -0.0040207207 
     96300   305.79736     -77060.882      204.87057     -76856.012      824.17093      54.150661      47.23557       44.135414     -27.020184     -0.058125842    0.028557996  
     96400   303.92377     -77060.596      203.61535     -76856.981     -86.782871      54.419477      47.207707      44.096369     -26.965333     -0.25499702     0.096870781  
     96500   302.04242     -77059.16       202.35493     -76856.805     -174.08739      54.318846      47.1416        44.256165     -27.020934     -0.2603806     -0.072853519  
     96600   302.61432     -77059.125      202.73808     -76856.387      219.30157      54.216726      47.029193      44.303382     -27.137781     -0.074060376   -0.13769947   
     96700   304.80036     -77061.71       204.20263     -76857.507     -343.0552       54.29541       47.111097      44.25334      -27.202753      0.0096147579  -0.10332964   
     96800   303.18966     -77062.272      203.12353     -76859.149      124.25513      54.169378      47.146074      44.264073     -27.171289     -0.053701174    0.054540551  
     96900   300.26233     -77061.684      201.16235     -76860.522      265.6849       54.014942      47.073721      44.422623     -26.940854     -0.037227773    0.18303863   
     97000   298.65291     -77062.576      200.08411     -76862.492     -493.71404      54.112288      47.01359       44.452877     -26.804961      0.0080257354   0.034565093  
     97100   298.64343     -77061.813      200.07776     -76861.735      558.2939       54.1629        46.952138      44.341863     -26.866882     -0.12227059    -0.19923887   
     97200   298.74689     -77060.556      200.14707     -76860.409     -191.78703      54.259224      47.012341      44.255665     -27.035873     -0.26357575    -0.10161753   
     97300   303.24096     -77062.918      203.15789     -76859.76       375.63873      54.138352      47.105597      44.255601     -26.9004       -0.079057456    0.046232157  
     97400   300.93579     -77061.01       201.61354     -76859.396     -164.64217      54.223582      47.032151      44.279634     -26.952276      0.026004201   -0.064468343  
     97500   302.75569     -77062.474      202.83279     -76859.641     -246.18503      54.342987      47.002628      44.249403     -27.226321     -0.06684415    -0.22494308   
     97600   303.01056     -77063.299      203.00354     -76860.295      451.36329      54.439987      46.875204      44.206827     -27.312099      0.10960504    -0.17521761   
     97700   301.2511      -77061.169      201.82478     -76859.344     -584.08366      54.283749      47.048419      44.294458     -27.15403       0.13588433    -0.22859352   
     97800   299.56482     -77061.315      200.69505     -76860.62       454.244        54.260861      47.004204      44.314561     -27.144116     -0.14842786    -0.14448953   
     97900   302.79601     -77064.367      202.8598      -76861.507     -329.61244      54.311463      46.955832      44.350235     -27.083663     -0.073408408   -0.080278151  
     98000   298.76774     -77061.425      200.16104     -76861.264     -212.66243      54.28225       47.000947      44.316914     -27.039277      0.01772806    -0.19592995   
     98100   301.84293     -77064.443      202.22128     -76862.222      570.80938      54.375683      46.966993      44.272657     -27.184134     -0.03640912    -0.19556558   
     98200   301.59193     -77063.194      202.05312     -76861.14      -158.30697      54.297151      47.08399       44.281772     -27.237078      0.026246539   -0.11927396   
     98300   300.98758     -77062.232      201.64823     -76860.583     -7.2962578      54.211125      47.08969       44.295933     -27.222306      0.26554617    -0.0090847334 
     98400   299.42195     -77059.845      200.59933     -76859.246      128.26338      54.133399      47.019742      44.2828       -27.378259      0.33507145    -0.021815834  
     98500   303.44306     -77061.416      203.2933      -76858.123     -1226.1703      54.181878      47.20881       44.328531     -27.633981      0.24072246    -0.0020591313 
     98600   302.55324     -77059.52       202.69716     -76856.823      860.89212      54.078923      47.100427      44.220839     -27.418659      0.37035348     0.15832136   
     98700   306.18075     -77060.234      205.12743     -76855.107      123.31394      54.228348      47.202823      44.144481     -27.301847      0.32002057     0.049308363  
     98800   308.67854     -77060.518      206.80083     -76853.717     -824.31734      54.298374      47.207924      44.127166     -27.340292      0.059217003    0.006454608  
     98900   307.43965     -77059.143      205.97083     -76853.172      373.22989      54.058527      47.070048      44.342949     -27.122712      0.024451193    0.13523923   
     99000   308.9445      -77060.375      206.97901     -76853.396     -702.01383      54.074357      47.159069      44.351622     -27.080551      0.068441179    0.11546919   
     99100   305.22251     -77059.169      204.48544     -76854.683      1150.131       54.10209       47.148617      44.23598      -27.255609      0.078966923    0.047456628  
     99200   305.49211     -77058.209      204.66607     -76853.542     -758.93529      54.223641      47.080187      44.314986     -27.227216      0.11482189    -0.066413141  
     99300   306.16274     -77059.418      205.11536     -76854.302      13.561833      54.142374      47.046571      44.371125     -26.987543      0.10693472    -0.12664028   
     99400   309.17621     -77062.429      207.13425     -76855.295     -214.07946      54.087066      47.083482      44.355028     -26.912381     -0.063451227   -0.033453708  
     99500   302.96433     -77057.357      202.97257     -76854.384     -56.467644      54.06801       47.159134      44.277839     -26.890743     -0.055981295    0.084285754  
     99600   303.95891     -77059.231      203.63889     -76855.592      268.68421      54.049942      47.174923      44.231271     -26.999017     -0.027925495   -0.090149561  
     99700   305.17522     -77061.364      204.45377     -76856.91      -474.55552      54.166569      46.988205      44.417423     -27.205143      0.18489212    -0.15789325   
     99800   305.09936     -77061.872      204.40294     -76857.469      329.74852      54.16208       46.905932      44.350679     -27.234611      0.31515189    -0.21392769   
     99900   304.46088     -77061.996      203.97519     -76858.02       30.988417      54.295986      47.169663      44.166853     -27.392953      0.07400498    -0.23780796   
    100000   299.67224     -77061.085      200.76702     -76860.318      83.980297      54.382702      47.038187      44.18438      -27.28209       0.025950338   -0.17783776   
    100043   301.38106     -77061.325      201.91185     -76859.413     -686.7419       54.37025       47.014116      44.240349     -27.185831      0.074627732   -0.15579708   
Loop time of 5080.62 on 1 procs for 100000 steps with 5184 atoms

Performance: 1.701 ns/day, 14.113 hours/ns, 19.683 timesteps/s, 102.035 katom-step/s
99.3% CPU use with 1 MPI tasks x 1 OpenMP threads

MPI task timing breakdown:
Section |  min time  |  avg time  |  max time  |%varavg| %total
---------------------------------------------------------------
Pair    | 4911.2     | 4911.2     | 4911.2     |   0.0 | 96.66
Neigh   | 138.2      | 138.2      | 138.2      |   0.0 |  2.72
Comm    | 4.1265     | 4.1265     | 4.1265     |   0.0 |  0.08
Output  | 6.02       | 6.02       | 6.02       |   0.0 |  0.12
Modify  | 19.619     | 19.619     | 19.619     |   0.0 |  0.39
Other   |            | 1.499      |            |       |  0.03

Nlocal:           5184 ave        5184 max        5184 min
Histogram: 1 0 0 0 0 0 0 0 0 0
Nghost:           6228 ave        6228 max        6228 min
Histogram: 1 0 0 0 0 0 0 0 0 0
Neighs:              0 ave           0 max           0 min
Histogram: 1 0 0 0 0 0 0 0 0 0
FullNghs:       330542 ave      330542 max      330542 min
Histogram: 1 0 0 0 0 0 0 0 0 0

Total # of neighbors = 330542
Ave neighs/atom = 63.76196
Neighbor list builds = 11351
Dangerous builds = 0

unfix           1
unfix           2
unfix           3

undump          myDump3

write_restart   restart.file
System init for write_restart ...
write_data      data.eq
System init for write_data ...
[GRACE:debug, proc #0]: Data preparation timer: 4.64628e+08 mcs, graph execution time: 4.45487e+09 mcs, data preparation time fraction: 9.44 %
Total wall time: 1:24:53
