ITEM: TIMESTEP
0
ITEM: NUMBER OF ATOMS
5184
ITEM: BOX BOUNDS xy xz yz pp pp pp
-2.6945099999999993e+01 5.3890200000000000e+01 -2.6945099999999993e+01
0.0000000000000000e+00 4.6670282215024159e+01 0.0000000000000000e+00
0.0000000000000000e+00 4.4024000000000001e+01 0.0000000000000000e+00
ITEM: ATOMS id type x y z fx fy fz
1 1 -0.209234 5.47345 6.98731 2.52965e-316 2.52965e-316 2.52965e-316
2 1 4.28251 2.88013 4.00259 0 0 0
3 1 53.6814 0.287599 0.349239 0 0 0
4 1 -0.209234 5.47345 17.9933 0 0 0
5 1 4.28251 2.88013 15.0086 0 0 0
6 1 53.6814 0.287599 11.3552 0 0 0
7 1 -0.209234 5.47345 28.9993 0 0 0
8 1 4.28251 2.88013 26.0146 0 0 0
9 1 53.6814 0.287599 22.3612 0 0 0
10 1 -0.209234 5.47345 40.0053 0 0 0
11 1 4.28251 2.88013 37.0206 0 0 0
12 1 53.6814 0.287599 33.3672 0 0 0
13 1 -4.70008 13.2518 6.98731 0 0 0
14 1 -0.208336 10.6585 4.00259 0 0 0
15 1 49.1906 8.06598 0.349239 0 0 0
16 1 -4.70008 13.2518 17.9933 0 0 0
17 1 -0.208336 10.6585 15.0086 0 0 0
18 1 49.1906 8.06598 11.3552 0 0 0
19 1 -4.70008 13.2518 28.9993 0 0 0
20 1 -0.208336 10.6585 26.0146 0 0 0
21 1 49.1906 8.06598 22.3612 0 0 0
22 1 -4.70008 13.2518 40.0053 0 0 0
23 1 -0.208336 10.6585 37.0206 0 0 0
24 1 49.1906 8.06598 33.3672 0 0 0
25 1 -9.19093 21.0302 6.98731 0 0 0
26 1 -4.69919 18.4369 4.00259 0 0 0
27 1 44.6997 15.8444 0.349239 0 0 0
28 1 -9.19093 21.0302 17.9933 0 0 0
29 1 -4.69919 18.4369 15.0086 0 0 0
30 1 44.6997 15.8444 11.3552 0 0 0
31 1 -9.19093 21.0302 28.9993 0 0 0
32 1 -4.69919 18.4369 26.0146 0 0 0
33 1 44.6997 15.8444 22.3612 0 0 0
34 1 -9.19093 21.0302 40.0053 0 0 0
35 1 -4.69919 18.4369 37.0206 0 0 0
36 1 44.6997 15.8444 33.3672 0 0 0
37 1 -13.6818 28.8086 6.98731 0 0 0
38 1 -9.19004 26.2153 4.00259 0 0 0
39 1 40.2089 23.6227 0.349239 0 0 0
40 1 -13.6818 28.8086 17.9933 0 0 0
41 1 -9.19004 26.2153 15.0086 0 0 0
42 1 40.2089 23.6227 11.3552 0 0 0
43 1 -13.6818 28.8086 28.9993 0 0 0
44 1 -9.19004 26.2153 26.0146 0 0 0
45 1 40.2089 23.6227 22.3612 0 0 0
46 1 -13.6818 28.8086 40.0053 0 0 0
47 1 -9.19004 26.2153 37.0206 0 0 0
48 1 40.2089 23.6227 33.3672 0 0 0
49 1 -18.1726 36.587 6.98731 0 0 0
50 1 -13.6809 33.9937 4.00259 0 0 0
51 1 35.718 31.4011 0.349239 0 0 0
52 1 -18.1726 36.587 17.9933 0 0 0
53 1 -13.6809 33.9937 15.0086 0 0 0
54 1 35.718 31.4011 11.3552 0 0 0
55 1 -18.1726 36.587 28.9993 0 0 0
56 1 -13.6809 33.9937 26.0146 0 0 0
57 1 35.718 31.4011 22.3612 0 0 0
58 1 -18.1726 36.587 40.0053 0 0 0
59 1 -13.6809 33.9937 37.0206 0 0 0
60 1 35.718 31.4011 33.3672 0 0 0
61 1 -22.6635 44.3653 6.98731 0 0 0
62 1 -18.1717 41.772 4.00259 0 0 0
63 1 31.2272 39.1795 0.349239 0 0 0
64 1 -22.6635 44.3653 17.9933 0 0 0
65 1 -18.1717 41.772 15.0086 0 0 0
66 1 31.2272 39.1795 11.3552 0 0 0
67 1 -22.6635 44.3653 28.9993 0 0 0
68 1 -18.1717 41.772 26.0146 0 0 0
69 1 31.2272 39.1795 22.3612 0 0 0
70 1 -22.6635 44.3653 40.0053 0 0 0
71 1 -18.1717 41.772 37.0206 0 0 0
72 1 31.2272 39.1795 33.3672 0 0 0
73 1 8.77247 5.47345 6.98731 0 0 0
74 1 13.2642 2.88013 4.00259 0 0 0
75 1 8.77291 0.287599 0.349239 0 0 0
76 1 8.77247 5.47345 17.9933 0 0 0
77 1 13.2642 2.88013 15.0086 0 0 0
78 1 8.77291 0.287599 11.3552 0 0 0
79 1 8.77247 5.47345 28.9993 0 0 0
80 1 13.2642 2.88013 26.0146 0 0 0
81 1 8.77291 0.287599 22.3612 0 0 0
82 1 8.77247 5.47345 40.0053 0 0 0
83 1 13.2642 2.88013 37.0206 0 0 0
84 1 8.77291 0.287599 33.3672 0 0 0
85 1 4.28162 13.2518 6.98731 0 0 0
86 1 8.77336 10.6585 4.00259 0 0 0
87 1 4.28206 8.06598 0.349239 0 0 0
88 1 4.28162 13.2518 17.9933 0 0 0
89 1 8.77336 10.6585 15.0086 0 0 0
90 1 4.28206 8.06598 11.3552 0 0 0
91 1 4.28162 13.2518 28.9993 0 0 0
92 1 8.77336 10.6585 26.0146 0 0 0
93 1 4.28206 8.06598 22.3612 0 0 0
94 1 4.28162 13.2518 40.0053 0 0 0
95 1 8.77336 10.6585 37.0206 0 0 0
96 1 4.28206 8.06598 33.3672 0 0 0
97 1 -0.209234 21.0302 6.98731 0 0 0
98 1 4.28251 18.4369 4.00259 0 0 0
99 1 -0.208785 15.8444 0.349239 0 0 0
100 1 -0.209234 21.0302 17.9933 0 0 0
101 1 4.28251 18.4369 15.0086 0 0 0
102 1 -0.208785 15.8444 11.3552 0 0 0
103 1 -0.209234 21.0302 28.9993 0 0 0
104 1 4.28251 18.4369 26.0146 0 0 0
105 1 -0.208785 15.8444 22.3612 0 0 0
106 1 -0.209234 21.0302 40.0053 0 0 0
107 1 4.28251 18.4369 37.0206 0 0 0
108 1 -0.208785 15.8444 33.3672 0 0 0
109 1 -4.70008 28.8086 6.98731 0 0 0
110 1 -0.208336 26.2153 4.00259 0 0 0
111 1 -4.69964 23.6227 0.349239 0 0 0
112 1 -4.70008 28.8086 17.9933 0 0 0
113 1 -0.208336 26.2153 15.0086 0 0 0
114 1 -4.69964 23.6227 11.3552 0 0 0
115 1 -4.70008 28.8086 28.9993 0 0 0
116 1 -0.208336 26.2153 26.0146 0 0 0
117 1 -4.69964 23.6227 22.3612 0 0 0
118 1 -4.70008 28.8086 40.0053 0 0 0
119 1 -0.208336 26.2153 37.0206 0 0 0
120 1 -4.69964 23.6227 33.3672 0 0 0
121 1 -9.19093 36.587 6.98731 0 0 0
122 1 -4.69919 33.9937 4.00259 0 0 0
123 1 -9.19049 31.4011 0.349239 0 0 0
124 1 -9.19093 36.587 17.9933 0 0 0
125 1 -4.69919 33.9937 15.0086 0 0 0
126 1 -9.19049 31.4011 11.3552 0 0 0
127 1 -9.19093 36.587 28.9993 0 0 0
128 1 -4.69919 33.9937 26.0146 0 0 0
129 1 -9.19049 31.4011 22.3612 0 0 0
130 1 -9.19093 36.587 40.0053 0 0 0
131 1 -4.69919 33.9937 37.0206 0 0 0
132 1 -9.19049 31.4011 33.3672 0 0 0
133 1 -13.6818 44.3653 6.98731 0 0 0
134 1 -9.19004 41.772 4.00259 0 0 0
135 1 -13.6813 39.1795 0.349239 0 0 0
136 1 -13.6818 44.3653 17.9933 0 0 0
137 1 -9.19004 41.772 15.0086 0 0 0
138 1 -13.6813 39.1795 11.3552 0 0 0
139 1 -13.6818 44.3653 28.9993 0 0 0
140 1 -9.19004 41.772 26.0146 0 0 0
141 1 -13.6813 39.1795 22.3612 0 0 0
142 1 -13.6818 44.3653 40.0053 0 0 0
143 1 -9.19004 41.772 37.0206 0 0 0
144 1 -13.6813 39.1795 33.3672 0 0 0
145 1 17.7542 5.47345 6.98731 0 0 0
146 1 22.2459 2.88013 4.00259 0 0 0
147 1 17.7546 0.287599 0.349239 0 0 0
148 1 17.7542 5.47345 17.9933 0 0 0
149 1 22.2459 2.88013 15.0086 0 0 0
150 1 17.7546 0.287599 11.3552 0 0 0
151 1 17.7542 5.47345 28.9993 0 0 0
152 1 22.2459 2.88013 26.0146 0 0 0
153 1 17.7546 0.287599 22.3612 0 0 0
154 1 17.7542 5.47345 40.0053 0 0 0
155 1 22.2459 2.88013 37.0206 0 0 0
156 1 17.7546 0.287599 33.3672 0 0 0
157 1 13.2633 13.2518 6.98731 0 0 0
158 1 17.7551 10.6585 4.00259 0 0 0
159 1 13.2638 8.06598 0.349239 0 0 0
160 1 13.2633 13.2518 17.9933 0 0 0
161 1 17.7551 10.6585 15.0086 0 0 0
162 1 13.2638 8.06598 11.3552 0 0 0
163 1 13.2633 13.2518 28.9993 0 0 0
164 1 17.7551 10.6585 26.0146 0 0 0
165 1 13.2638 8.06598 22.3612 0 0 0
166 1 13.2633 13.2518 40.0053 0 0 0
167 1 17.7551 10.6585 37.0206 0 0 0
168 1 13.2638 8.06598 33.3672 0 0 0
169 1 8.77247 21.0302 6.98731 0 0 0
170 1 13.2642 18.4369 4.00259 0 0 0
171 1 8.77291 15.8444 0.349239 0 0 0
172 1 8.77247 21.0302 17.9933 0 0 0
173 1 13.2642 18.4369 15.0086 0 0 0
174 1 8.77291 15.8444 11.3552 0 0 0
175 1 8.77247 21.0302 28.9993 0 0 0
176 1 13.2642 18.4369 26.0146 0 0 0
177 1 8.77291 15.8444 22.3612 0 0 0
178 1 8.77247 21.0302 40.0053 0 0 0
179 1 13.2642 18.4369 37.0206 0 0 0
180 1 8.77291 15.8444 33.3672 0 0 0
181 1 4.28162 28.8086 6.98731 0 0 0
182 1 8.77336 26.2153 4.00259 0 0 0
183 1 4.28206 23.6227 0.349239 0 0 0
184 1 4.28162 28.8086 17.9933 0 0 0
185 1 8.77336 26.2153 15.0086 0 0 0
186 1 4.28206 23.6227 11.3552 0 0 0
187 1 4.28162 28.8086 28.9993 0 0 0
188 1 8.77336 26.2153 26.0146 0 0 0
189 1 4.28206 23.6227 22.3612 0 0 0
190 1 4.28162 28.8086 40.0053 0 0 0
191 1 8.77336 26.2153 37.0206 0 0 0
192 1 4.28206 23.6227 33.3672 0 0 0
193 1 -0.209234 36.587 6.98731 0 0 0
194 1 4.28251 33.9937 4.00259 0 0 0
195 1 -0.208785 31.4011 0.349239 0 0 0
196 1 -0.209234 36.587 17.9933 0 0 0
197 1 4.28251 33.9937 15.0086 0 0 0
198 1 -0.208785 31.4011 11.3552 0 0 0
199 1 -0.209234 36.587 28.9993 0 0 0
200 1 4.28251 33.9937 26.0146 0 0 0
201 1 -0.208785 31.4011 22.3612 0 0 0
202 1 -0.209234 36.587 40.0053 0 0 0
203 1 4.28251 33.9937 37.0206 0 0 0
204 1 -0.208785 31.4011 33.3672 0 0 0
205 1 -4.70008 44.3653 6.98731 0 0 0
206 1 -0.208336 41.772 4.00259 0 0 0
207 1 -4.69964 39.1795 0.349239 0 0 0
208 1 -4.70008 44.3653 17.9933 0 0 0
209 1 -0.208336 41.772 15.0086 0 0 0
210 1 -4.69964 39.1795 11.3552 0 0 0
211 1 -4.70008 44.3653 28.9993 0 0 0
212 1 -0.208336 41.772 26.0146 0 0 0
213 1 -4.69964 39.1795 22.3612 0 0 0
214 1 -4.70008 44.3653 40.0053 0 0 0
215 1 -0.208336 41.772 37.0206 0 0 0
216 1 -4.69964 39.1795 33.3672 0 0 0
217 1 26.7359 5.47345 6.98731 0 0 0
218 1 31.2276 2.88013 4.00259 0 0 0
219 1 26.7363 0.287599 0.349239 0 0 0
220 1 26.7359 5.47345 17.9933 0 0 0
221 1 31.2276 2.88013 15.0086 0 0 0
222 1 26.7363 0.287599 11.3552 0 0 0
223 1 26.7359 5.47345 28.9993 0 0 0
224 1 31.2276 2.88013 26.0146 0 0 0
225 1 26.7363 0.287599 22.3612 0 0 0
226 1 26.7359 5.47345 40.0053 0 0 0
227 1 31.2276 2.88013 37.0206 0 0 0
228 1 26.7363 0.287599 33.3672 0 0 0
229 1 22.245 13.2518 6.98731 0 0 0
230 1 26.7368 10.6585 4.00259 0 0 0
231 1 22.2455 8.06598 0.349239 0 0 0
232 1 22.245 13.2518 17.9933 0 0 0
233 1 26.7368 10.6585 15.0086 0 0 0
234 1 22.2455 8.06598 11.3552 0 0 0
235 1 22.245 13.2518 28.9993 0 0 0
236 1 26.7368 10.6585 26.0146 0 0 0
237 1 22.2455 8.06598 22.3612 0 0 0
238 1 22.245 13.2518 40.0053 0 0 0
239 1 26.7368 10.6585 37.0206 0 0 0
240 1 22.2455 8.06598 33.3672 0 0 0
241 1 17.7542 21.0302 6.98731 0 0 0
242 1 22.2459 18.4369 4.00259 0 0 0
243 1 17.7546 15.8444 0.349239 0 0 0
244 1 17.7542 21.0302 17.9933 0 0 0
245 1 22.2459 18.4369 15.0086 0 0 0
246 1 17.7546 15.8444 11.3552 0 0 0
247 1 17.7542 21.0302 28.9993 0 0 0
248 1 22.2459 18.4369 26.0146 0 0 0
249 1 17.7546 15.8444 22.3612 0 0 0
250 1 17.7542 21.0302 40.0053 0 0 0
251 1 22.2459 18.4369 37.0206 0 0 0
252 1 17.7546 15.8444 33.3672 0 0 0
253 1 13.2633 28.8086 6.98731 0 0 0
254 1 17.7551 26.2153 4.00259 0 0 0
255 1 13.2638 23.6227 0.349239 0 0 0
256 1 13.2633 28.8086 17.9933 0 0 0
257 1 17.7551 26.2153 15.0086 0 0 0
258 1 13.2638 23.6227 11.3552 0 0 0
259 1 13.2633 28.8086 28.9993 0 0 0
260 1 17.7551 26.2153 26.0146 0 0 0
261 1 13.2638 23.6227 22.3612 0 0 0
262 1 13.2633 28.8086 40.0053 0 0 0
263 1 17.7551 26.2153 37.0206 0 0 0
264 1 13.2638 23.6227 33.3672 0 0 0
265 1 8.77247 36.587 6.98731 0 0 0
266 1 13.2642 33.9937 4.00259 0 0 0
267 1 8.77291 31.4011 0.349239 0 0 0
268 1 8.77247 36.587 17.9933 0 0 0
269 1 13.2642 33.9937 15.0086 0 0 0
270 1 8.77291 31.4011 11.3552 0 0 0
271 1 8.77247 36.587 28.9993 0 0 0
272 1 13.2642 33.9937 26.0146 0 0 0
273 1 8.77291 31.4011 22.3612 0 0 0
274 1 8.77247 36.587 40.0053 0 0 0
275 1 13.2642 33.9937 37.0206 0 0 0
276 1 8.77291 31.4011 33.3672 0 0 0
277 1 4.28162 44.3653 6.98731 0 0 0
278 1 8.77336 41.772 4.00259 0 0 0
279 1 4.28206 39.1795 0.349239 0 0 0
280 1 4.28162 44.3653 17.9933 0 0 0
281 1 8.77336 41.772 15.0086 0 0 0
282 1 4.28206 39.1795 11.3552 0 0 0
283 1 4.28162 44.3653 28.9993 0 0 0
284 1 8.77336 41.772 26.0146 0 0 0
285 1 4.28206 39.1795 22.3612 0 0 0
286 1 4.28162 44.3653 40.0053 0 0 0
287 1 8.77336 41.772 37.0206 0 0 0
288 1 4.28206 39.1795 33.3672 0 0 0
289 1 35.7176 5.47345 6.98731 0 0 0
290 1 40.2093 2.88013 4.00259 0 0 0
291 1 35.718 0.287599 0.349239 0 0 0
292 1 35.7176 5.47345 17.9933 0 0 0
293 1 40.2093 2.88013 15.0086 0 0 0
294 1 35.718 0.287599 11.3552 0 0 0
295 1 35.7176 5.47345 28.9993 0 0 0
296 1 40.2093 2.88013 26.0146 0 0 0
297 1 35.718 0.287599 22.3612 0 0 0
298 1 35.7176 5.47345 40.0053 0 0 0
299 1 40.2093 2.88013 37.0206 0 0 0
300 1 35.718 0.287599 33.3672 0 0 0
301 1 31.2267 13.2518 6.98731 0 0 0
302 1 35.7185 10.6585 4.00259 0 0 0
303 1 31.2272 8.06598 0.349239 0 0 0
304 1 31.2267 13.2518 17.9933 0 0 0
305 1 35.7185 10.6585 15.0086 0 0 0
306 1 31.2272 8.06598 11.3552 0 0 0
307 1 31.2267 13.2518 28.9993 0 0 0
308 1 35.7185 10.6585 26.0146 0 0 0
309 1 31.2272 8.06598 22.3612 0 0 0
310 1 31.2267 13.2518 40.0053 0 0 0
311 1 35.7185 10.6585 37.0206 0 0 0
312 1 31.2272 8.06598 33.3672 0 0 0
313 1 26.7359 21.0302 6.98731 0 0 0
314 1 31.2276 18.4369 4.00259 0 0 0
315 1 26.7363 15.8444 0.349239 0 0 0
316 1 26.7359 21.0302 17.9933 0 0 0
317 1 31.2276 18.4369 15.0086 0 0 0
318 1 26.7363 15.8444 11.3552 0 0 0
319 1 26.7359 21.0302 28.9993 0 0 0
320 1 31.2276 18.4369 26.0146 0 0 0
321 1 26.7363 15.8444 22.3612 0 0 0
322 1 26.7359 21.0302 40.0053 0 0 0
323 1 31.2276 18.4369 37.0206 0 0 0
324 1 26.7363 15.8444 33.3672 0 0 0
325 1 22.245 28.8086 6.98731 0 0 0
326 1 26.7368 26.2153 4.00259 0 0 0
327 1 22.2455 23.6227 0.349239 0 0 0
328 1 22.245 28.8086 17.9933 0 0 0
329 1 26.7368 26.2153 15.0086 0 0 0
330 1 22.2455 23.6227 11.3552 0 0 0
331 1 22.245 28.8086 28.9993 0 0 0
332 1 26.7368 26.2153 26.0146 0 0 0
333 1 22.2455 23.6227 22.3612 0 0 0
334 1 22.245 28.8086 40.0053 0 0 0
335 1 26.7368 26.2153 37.0206 0 0 0
336 1 22.2455 23.6227 33.3672 0 0 0
337 1 17.7542 36.587 6.98731 0 0 0
338 1 22.2459 33.9937 4.00259 0 0 0
339 1 17.7546 31.4011 0.349239 0 0 0
340 1 17.7542 36.587 17.9933 0 0 0
341 1 22.2459 33.9937 15.0086 0 0 0
342 1 17.7546 31.4011 11.3552 0 0 0
343 1 17.7542 36.587 28.9993 0 0 0
344 1 22.2459 33.9937 26.0146 0 0 0
345 1 17.7546 31.4011 22.3612 0 0 0
346 1 17.7542 36.587 40.0053 0 0 0
347 1 22.2459 33.9937 37.0206 0 0 0
348 1 17.7546 31.4011 33.3672 0 0 0
349 1 13.2633 44.3653 6.98731 0 0 0
350 1 17.7551 41.772 4.00259 0 0 0
351 1 13.2638 39.1795 0.349239 0 0 0
352 1 13.2633 44.3653 17.9933 0 0 0
353 1 17.7551 41.772 15.0086 0 0 0
354 1 13.2638 39.1795 11.3552 0 0 0
355 1 13.2633 44.3653 28.9993 0 0 0
356 1 17.7551 41.772 26.0146 0 0 0
357 1 13.2638 39.1795 22.3612 0 0 0
358 1 13.2633 44.3653 40.0053 0 0 0
359 1 17.7551 41.772 37.0206 0 0 0
360 1 13.2638 39.1795 33.3672 0 0 0
361 1 44.6993 5.47345 6.98731 0 0 0
362 1 49.191 2.88013 4.00259 0 0 0
363 1 44.6997 0.287599 0.349239 0 0 0
364 1 44.6993 5.47345 17.9933 0 0 0
365 1 49.191 2.88013 15.0086 0 0 0
366 1 44.6997 0.287599 11.3552 0 0 0
367 1 44.6993 5.47345 28.9993 0 0 0
368 1 49.191 2.88013 26.0146 0 0 0
369 1 44.6997 0.287599 22.3612 0 0 0
370 1 44.6993 5.47345 40.0053 0 0 0
371 1 49.191 2.88013 37.0206 0 0 0
372 1 44.6997 0.287599 33.3672 0 0 0
373 1 40.2084 13.2518 6.98731 0 0 0
374 1 44.7002 10.6585 4.00259 0 0 0
375 1 40.2089 8.06598 0.349239 0 0 0
376 1 40.2084 13.2518 17.9933 0 0 0
377 1 44.7002 10.6585 15.0086 0 0 0
378 1 40.2089 8.06598 11.3552 0 0 0
379 1 40.2084 13.2518 28.9993 0 0 0
380 1 44.7002 10.6585 26.0146 0 0 0
381 1 40.2089 8.06598 22.3612 0 0 0
382 1 40.2084 13.2518 40.0053 0 0 0
383 1 44.7002 10.6585 37.0206 0 0 0
384 1 40.2089 8.06598 33.3672 0 0 0
385 1 35.7176 21.0302 6.98731 0 0 0
386 1 40.2093 18.4369 4.00259 0 0 0
387 1 35.718 15.8444 0.349239 0 0 0
388 1 35.7176 21.0302 17.9933 0 0 0
389 1 40.2093 18.4369 15.0086 0 0 0
390 1 35.718 15.8444 11.3552 0 0 0
391 1 35.7176 21.0302 28.9993 0 0 0
392 1 40.2093 18.4369 26.0146 0 0 0
393 1 35.718 15.8444 22.3612 0 0 0
394 1 35.7176 21.0302 40.0053 0 0 0
395 1 40.2093 18.4369 37.0206 0 0 0
396 1 35.718 15.8444 33.3672 0 0 0
397 1 31.2267 28.8086 6.98731 0 0 0
398 1 35.7185 26.2153 4.00259 0 0 0
399 1 31.2272 23.6227 0.349239 0 0 0
400 1 31.2267 28.8086 17.9933 0 0 0
401 1 35.7185 26.2153 15.0086 0 0 0
402 1 31.2272 23.6227 11.3552 0 0 0
403 1 31.2267 28.8086 28.9993 0 0 0
404 1 35.7185 26.2153 26.0146 0 0 0
405 1 31.2272 23.6227 22.3612 0 0 0
406 1 31.2267 28.8086 40.0053 0 0 0
407 1 35.7185 26.2153 37.0206 0 0 0
408 1 31.2272 23.6227 33.3672 0 0 0
409 1 26.7359 36.587 6.98731 0 0 0
410 1 31.2276 33.9937 4.00259 0 0 0
411 1 26.7363 31.4011 0.349239 0 0 0
412 1 26.7359 36.587 17.9933 0 0 0
413 1 31.2276 33.9937 15.0086 0 0 0
414 1 26.7363 31.4011 11.3552 0 0 0
415 1 26.7359 36.587 28.9993 0 0 0
416 1 31.2276 33.9937 26.0146 0 0 0
417 1 26.7363 31.4011 22.3612 0 0 0
418 1 26.7359 36.587 40.0053 0 0 0
419 1 31.2276 33.9937 37.0206 0 0 0
420 1 26.7363 31.4011 33.3672 0 0 0
421 1 22.245 44.3653 6.98731 0 0 0
422 1 26.7368 41.772 4.00259 0 0 0
423 1 22.2455 39.1795 0.349239 0 0 0
424 1 22.245 44.3653 17.9933 0 0 0
425 1 26.7368 41.772 15.0086 0 0 0
426 1 22.2455 39.1795 11.3552 0 0 0
427 1 22.245 44.3653 28.9993 0 0 0
428 1 26.7368 41.772 26.0146 0 0 0
429 1 22.2455 39.1795 22.3612 0 0 0
430 1 22.245 44.3653 40.0053 0 0 0
431 1 26.7368 41.772 37.0206 0 0 0
432 1 22.2455 39.1795 33.3672 0 0 0
433 2 0.0937658 4.86945 5.04031 0 0 0
434 2 1.08477 3.88245 7.16031 0 0 0
435 2 0.593766 4.66245 8.65331 0 0 0
436 2 -0.972234 6.24045 5.27731 0 0 0
437 2 -0.752234 6.22145 7.58931 0 0 0
438 2 4.58551 2.27613 2.05559 0 0 0
439 2 5.57651 1.28913 4.17559 0 0 0
440 2 5.08551 2.06913 5.66859 0 0 0
441 2 3.51951 3.64713 2.29259 0 0 0
442 2 3.73951 3.62813 4.60459 0 0 0
443 2 27.0393 46.3539 42.4262 0 0 0
444 2 -25.8599 45.3669 0.522239 0 0 0
445 2 -26.3509 46.1469 2.01524 0 0 0
446 2 52.9184 1.0546 42.6632 0 0 0
447 2 53.1384 1.0356 0.951239 0 0 0
448 2 0.0937658 4.86945 16.0463 0 0 0
449 2 1.08477 3.88245 18.1663 0 0 0
450 2 0.593766 4.66245 19.6593 0 0 0
451 2 -0.972234 6.24045 16.2833 0 0 0
452 2 -0.752234 6.22145 18.5953 0 0 0
453 2 4.58551 2.27613 13.0616 0 0 0
454 2 5.57651 1.28913 15.1816 0 0 0
455 2 5.08551 2.06913 16.6746 0 0 0
456 2 3.51951 3.64713 13.2986 0 0 0
457 2 3.73951 3.62813 15.6106 0 0 0
458 2 27.0393 46.3539 9.40824 0 0 0
459 2 -25.8599 45.3669 11.5282 0 0 0
460 2 -26.3509 46.1469 13.0212 0 0 0
461 2 52.9184 1.0546 9.64524 0 0 0
462 2 53.1384 1.0356 11.9572 0 0 0
463 2 0.0937658 4.86945 27.0523 0 0 0
464 2 1.08477 3.88245 29.1723 0 0 0
465 2 0.593766 4.66245 30.6653 0 0 0
466 2 -0.972234 6.24045 27.2893 0 0 0
467 2 -0.752234 6.22145 29.6013 0 0 0
468 2 4.58551 2.27613 24.0676 0 0 0
469 2 5.57651 1.28913 26.1876 0 0 0
470 2 5.08551 2.06913 27.6806 0 0 0
471 2 3.51951 3.64713 24.3046 0 0 0
472 2 3.73951 3.62813 26.6166 0 0 0
473 2 27.0393 46.3539 20.4142 0 0 0
474 2 -25.8599 45.3669 22.5342 0 0 0
475 2 -26.3509 46.1469 24.0272 0 0 0
476 2 52.9184 1.0546 20.6512 0 0 0
477 2 53.1384 1.0356 22.9632 0 0 0
478 2 0.0937658 4.86945 38.0583 0 0 0
479 2 1.08477 3.88245 40.1783 0 0 0
480 2 0.593766 4.66245 41.6713 0 0 0
481 2 -0.972234 6.24045 38.2953 0 0 0
482 2 -0.752234 6.22145 40.6073 0 0 0
483 2 4.58551 2.27613 35.0736 0 0 0
484 2 5.57651 1.28913 37.1936 0 0 0
485 2 5.08551 2.06913 38.6866 0 0 0
486 2 3.51951 3.64713 35.3106 0 0 0
487 2 3.73951 3.62813 37.6226 0 0 0
488 2 27.0393 46.3539 31.4202 0 0 0
489 2 -25.8599 45.3669 33.5402 0 0 0
490 2 -26.3509 46.1469 35.0332 0 0 0
491 2 52.9184 1.0546 31.6572 0 0 0
492 2 53.1384 1.0356 33.9692 0 0 0
493 2 -4.39708 12.6478 5.04031 0 0 0
494 2 -3.40608 11.6608 7.16031 0 0 0
495 2 -3.89708 12.4408 8.65331 0 0 0
496 2 -5.46308 14.0188 5.27731 0 0 0
497 2 -5.24308 13.9998 7.58931 0 0 0
498 2 0.0946639 10.0545 2.05559 0 0 0
499 2 1.08566 9.06751 4.17559 0 0 0
500 2 0.594664 9.84751 5.66859 0 0 0
501 2 -0.971336 11.4255 2.29259 0 0 0
502 2 -0.751336 11.4065 4.60459 0 0 0
503 2 49.4936 7.46198 42.4262 0 0 0
504 2 -3.40564 6.47498 0.522239 0 0 0
505 2 -3.89664 7.25498 2.01524 0 0 0
506 2 48.4276 8.83298 42.6632 0 0 0
507 2 48.6476 8.81398 0.951239 0 0 0
508 2 -4.39708 12.6478 16.0463 0 0 0
509 2 -3.40608 11.6608 18.1663 0 0 0
510 2 -3.89708 12.4408 19.6593 0 0 0
511 2 -5.46308 14.0188 16.2833 0 0 0
512 2 -5.24308 13.9998 18.5953 0 0 0
513 2 0.0946639 10.0545 13.0616 0 0 0
514 2 1.08566 9.06751 15.1816 0 0 0
515 2 0.594664 9.84751 16.6746 0 0 0
516 2 -0.971336 11.4255 13.2986 0 0 0
517 2 -0.751336 11.4065 15.6106 0 0 0
518 2 49.4936 7.46198 9.40824 0 0 0
519 2 -3.40564 6.47498 11.5282 0 0 0
520 2 -3.89664 7.25498 13.0212 0 0 0
521 2 48.4276 8.83298 9.64524 0 0 0
522 2 48.6476 8.81398 11.9572 0 0 0
523 2 -4.39708 12.6478 27.0523 0 0 0
524 2 -3.40608 11.6608 29.1723 0 0 0
525 2 -3.89708 12.4408 30.6653 0 0 0
526 2 -5.46308 14.0188 27.2893 0 0 0
527 2 -5.24308 13.9998 29.6013 0 0 0
528 2 0.0946639 10.0545 24.0676 0 0 0
529 2 1.08566 9.06751 26.1876 0 0 0
530 2 0.594664 9.84751 27.6806 0 0 0
531 2 -0.971336 11.4255 24.3046 0 0 0
532 2 -0.751336 11.4065 26.6166 0 0 0
533 2 49.4936 7.46198 20.4142 0 0 0
534 2 -3.40564 6.47498 22.5342 0 0 0
535 2 -3.89664 7.25498 24.0272 0 0 0
536 2 48.4276 8.83298 20.6512 0 0 0
537 2 48.6476 8.81398 22.9632 0 0 0
538 2 -4.39708 12.6478 38.0583 0 0 0
539 2 -3.40608 11.6608 40.1783 0 0 0
540 2 -3.89708 12.4408 41.6713 0 0 0
541 2 -5.46308 14.0188 38.2953 0 0 0
542 2 -5.24308 13.9998 40.6073 0 0 0
543 2 0.0946639 10.0545 35.0736 0 0 0
544 2 1.08566 9.06751 37.1936 0 0 0
545 2 0.594664 9.84751 38.6866 0 0 0
546 2 -0.971336 11.4255 35.3106 0 0 0
547 2 -0.751336 11.4065 37.6226 0 0 0
548 2 49.4936 7.46198 31.4202 0 0 0
549 2 -3.40564 6.47498 33.5402 0 0 0
550 2 -3.89664 7.25498 35.0332 0 0 0
551 2 48.4276 8.83298 31.6572 0 0 0
552 2 48.6476 8.81398 33.9692 0 0 0
553 2 -8.88793 20.4262 5.04031 0 0 0
554 2 -7.89693 19.4392 7.16031 0 0 0
555 2 -8.38793 20.2192 8.65331 0 0 0
556 2 -9.95393 21.7972 5.27731 0 0 0
557 2 -9.73393 21.7782 7.58931 0 0 0
558 2 -4.39619 17.8329 2.05559 0 0 0
559 2 -3.40519 16.8459 4.17559 0 0 0
560 2 -3.89619 17.6259 5.66859 0 0 0
561 2 -5.46219 19.2039 2.29259 0 0 0
562 2 -5.24219 19.1849 4.60459 0 0 0
563 2 45.0027 15.2404 42.4262 0 0 0
564 2 -7.89649 14.2534 0.522239 0 0 0
565 2 -8.38749 15.0334 2.01524 0 0 0
566 2 43.9367 16.6114 42.6632 0 0 0
567 2 44.1567 16.5924 0.951239 0 0 0
568 2 -8.88793 20.4262 16.0463 0 0 0
569 2 -7.89693 19.4392 18.1663 0 0 0
570 2 -8.38793 20.2192 19.6593 0 0 0
571 2 -9.95393 21.7972 16.2833 0 0 0
572 2 -9.73393 21.7782 18.5953 0 0 0
573 2 -4.39619 17.8329 13.0616 0 0 0
574 2 -3.40519 16.8459 15.1816 0 0 0
575 2 -3.89619 17.6259 16.6746 0 0 0
576 2 -5.46219 19.2039 13.2986 0 0 0
577 2 -5.24219 19.1849 15.6106 0 0 0
578 2 45.0027 15.2404 9.40824 0 0 0
579 2 -7.89649 14.2534 11.5282 0 0 0
580 2 -8.38749 15.0334 13.0212 0 0 0
581 2 43.9367 16.6114 9.64524 0 0 0
582 2 44.1567 16.5924 11.9572 0 0 0
583 2 -8.88793 20.4262 27.0523 0 0 0
584 2 -7.89693 19.4392 29.1723 0 0 0
585 2 -8.38793 20.2192 30.6653 0 0 0
586 2 -9.95393 21.7972 27.2893 0 0 0
587 2 -9.73393 21.7782 29.6013 0 0 0
588 2 -4.39619 17.8329 24.0676 0 0 0
589 2 -3.40519 16.8459 26.1876 0 0 0
590 2 -3.89619 17.6259 27.6806 0 0 0
591 2 -5.46219 19.2039 24.3046 0 0 0
592 2 -5.24219 19.1849 26.6166 0 0 0
593 2 45.0027 15.2404 20.4142 0 0 0
594 2 -7.89649 14.2534 22.5342 0 0 0
595 2 -8.38749 15.0334 24.0272 0 0 0
596 2 43.9367 16.6114 20.6512 0 0 0
597 2 44.1567 16.5924 22.9632 0 0 0
598 2 -8.88793 20.4262 38.0583 0 0 0
599 2 -7.89693 19.4392 40.1783 0 0 0
600 2 -8.38793 20.2192 41.6713 0 0 0
601 2 -9.95393 21.7972 38.2953 0 0 0
602 2 -9.73393 21.7782 40.6073 0 0 0
603 2 -4.39619 17.8329 35.0736 0 0 0
604 2 -3.40519 16.8459 37.1936 0 0 0
605 2 -3.89619 17.6259 38.6866 0 0 0
606 2 -5.46219 19.2039 35.3106 0 0 0
607 2 -5.24219 19.1849 37.6226 0 0 0
608 2 45.0027 15.2404 31.4202 0 0 0
609 2 -7.89649 14.2534 33.5402 0 0 0
610 2 -8.38749 15.0334 35.0332 0 0 0
611 2 43.9367 16.6114 31.6572 0 0 0
612 2 44.1567 16.5924 33.9692 0 0 0
613 2 -13.3788 28.2046 5.04031 0 0 0
614 2 -12.3878 27.2176 7.16031 0 0 0
615 2 -12.8788 27.9976 8.65331 0 0 0
616 2 -14.4448 29.5756 5.27731 0 0 0
617 2 -14.2248 29.5566 7.58931 0 0 0
618 2 -8.88704 25.6113 2.05559 0 0 0
619 2 -7.89604 24.6243 4.17559 0 0 0
620 2 -8.38704 25.4043 5.66859 0 0 0
621 2 -9.95304 26.9823 2.29259 0 0 0
622 2 -9.73304 26.9633 4.60459 0 0 0
623 2 40.5119 23.0187 42.4262 0 0 0
624 2 -12.3873 22.0317 0.522239 0 0 0
625 2 -12.8783 22.8117 2.01524 0 0 0
626 2 39.4459 24.3897 42.6632 0 0 0
627 2 39.6659 24.3707 0.951239 0 0 0
628 2 -13.3788 28.2046 16.0463 0 0 0
629 2 -12.3878 27.2176 18.1663 0 0 0
630 2 -12.8788 27.9976 19.6593 0 0 0
631 2 -14.4448 29.5756 16.2833 0 0 0
632 2 -14.2248 29.5566 18.5953 0 0 0
633 2 -8.88704 25.6113 13.0616 0 0 0
634 2 -7.89604 24.6243 15.1816 0 0 0
635 2 -8.38704 25.4043 16.6746 0 0 0
636 2 -9.95304 26.9823 13.2986 0 0 0
637 2 -9.73304 26.9633 15.6106 0 0 0
638 2 40.5119 23.0187 9.40824 0 0 0
639 2 -12.3873 22.0317 11.5282 0 0 0
640 2 -12.8783 22.8117 13.0212 0 0 0
641 2 39.4459 24.3897 9.64524 0 0 0
642 2 39.6659 24.3707 11.9572 0 0 0
643 2 -13.3788 28.2046 27.0523 0 0 0
644 2 -12.3878 27.2176 29.1723 0 0 0
645 2 -12.8788 27.9976 30.6653 0 0 0
646 2 -14.4448 29.5756 27.2893 0 0 0
647 2 -14.2248 29.5566 29.6013 0 0 0
648 2 -8.88704 25.6113 24.0676 0 0 0
649 2 -7.89604 24.6243 26.1876 0 0 0
650 2 -8.38704 25.4043 27.6806 0 0 0
651 2 -9.95304 26.9823 24.3046 0 0 0
652 2 -9.73304 26.9633 26.6166 0 0 0
653 2 40.5119 23.0187 20.4142 0 0 0
654 2 -12.3873 22.0317 22.5342 0 0 0
655 2 -12.8783 22.8117 24.0272 0 0 0
656 2 39.4459 24.3897 20.6512 0 0 0
657 2 39.6659 24.3707 22.9632 0 0 0
658 2 -13.3788 28.2046 38.0583 0 0 0
659 2 -12.3878 27.2176 40.1783 0 0 0
660 2 -12.8788 27.9976 41.6713 0 0 0
661 2 -14.4448 29.5756 38.2953 0 0 0
662 2 -14.2248 29.5566 40.6073 0 0 0
663 2 -8.88704 25.6113 35.0736 0 0 0
664 2 -7.89604 24.6243 37.1936 0 0 0
665 2 -8.38704 25.4043 38.6866 0 0 0
666 2 -9.95304 26.9823 35.3106 0 0 0
667 2 -9.73304 26.9633 37.6226 0 0 0
668 2 40.5119 23.0187 31.4202 0 0 0
669 2 -12.3873 22.0317 33.5402 0 0 0
670 2 -12.8783 22.8117 35.0332 0 0 0
671 2 39.4459 24.3897 31.6572 0 0 0
672 2 39.6659 24.3707 33.9692 0 0 0
673 2 -17.8696 35.983 5.04031 0 0 0
674 2 -16.8786 34.996 7.16031 0 0 0
675 2 -17.3696 35.776 8.65331 0 0 0
676 2 -18.9356 37.354 5.27731 0 0 0
677 2 -18.7156 37.335 7.58931 0 0 0
678 2 -13.3779 33.3897 2.05559 0 0 0
679 2 -12.3869 32.4027 4.17559 0 0 0
680 2 -12.8779 33.1827 5.66859 0 0 0
681 2 -14.4439 34.7607 2.29259 0 0 0
682 2 -14.2239 34.7417 4.60459 0 0 0
683 2 36.021 30.7971 42.4262 0 0 0
684 2 -16.8782 29.8101 0.522239 0 0 0
685 2 -17.3692 30.5901 2.01524 0 0 0
686 2 34.955 32.1681 42.6632 0 0 0
687 2 35.175 32.1491 0.951239 0 0 0
688 2 -17.8696 35.983 16.0463 0 0 0
689 2 -16.8786 34.996 18.1663 0 0 0
690 2 -17.3696 35.776 19.6593 0 0 0
691 2 -18.9356 37.354 16.2833 0 0 0
692 2 -18.7156 37.335 18.5953 0 0 0
693 2 -13.3779 33.3897 13.0616 0 0 0
694 2 -12.3869 32.4027 15.1816 0 0 0
695 2 -12.8779 33.1827 16.6746 0 0 0
696 2 -14.4439 34.7607 13.2986 0 0 0
697 2 -14.2239 34.7417 15.6106 0 0 0
698 2 36.021 30.7971 9.40824 0 0 0
699 2 -16.8782 29.8101 11.5282 0 0 0
700 2 -17.3692 30.5901 13.0212 0 0 0
701 2 34.955 32.1681 9.64524 0 0 0
702 2 35.175 32.1491 11.9572 0 0 0
703 2 -17.8696 35.983 27.0523 0 0 0
704 2 -16.8786 34.996 29.1723 0 0 0
705 2 -17.3696 35.776 30.6653 0 0 0
706 2 -18.9356 37.354 27.2893 0 0 0
707 2 -18.7156 37.335 29.6013 0 0 0
708 2 -13.3779 33.3897 24.0676 0 0 0
709 2 -12.3869 32.4027 26.1876 0 0 0
710 2 -12.8779 33.1827 27.6806 0 0 0
711 2 -14.4439 34.7607 24.3046 0 0 0
712 2 -14.2239 34.7417 26.6166 0 0 0
713 2 36.021 30.7971 20.4142 0 0 0
714 2 -16.8782 29.8101 22.5342 0 0 0
715 2 -17.3692 30.5901 24.0272 0 0 0
716 2 34.955 32.1681 20.6512 0 0 0
717 2 35.175 32.1491 22.9632 0 0 0
718 2 -17.8696 35.983 38.0583 0 0 0
719 2 -16.8786 34.996 40.1783 0 0 0
720 2 -17.3696 35.776 41.6713 0 0 0
721 2 -18.9356 37.354 38.2953 0 0 0
722 2 -18.7156 37.335 40.6073 0 0 0
723 2 -13.3779 33.3897 35.0736 0 0 0
724 2 -12.3869 32.4027 37.1936 0 0 0
725 2 -12.8779 33.1827 38.6866 0 0 0
726 2 -14.4439 34.7607 35.3106 0 0 0
727 2 -14.2239 34.7417 37.6226 0 0 0
728 2 36.021 30.7971 31.4202 0 0 0
729 2 -16.8782 29.8101 33.5402 0 0 0
730 2 -17.3692 30.5901 35.0332 0 0 0
731 2 34.955 32.1681 31.6572 0 0 0
732 2 35.175 32.1491 33.9692 0 0 0
733 2 -22.3605 43.7613 5.04031 0 0 0
734 2 -21.3695 42.7743 7.16031 0 0 0
735 2 -21.8605 43.5543 8.65331 0 0 0
736 2 -23.4265 45.1323 5.27731 0 0 0
737 2 -23.2065 45.1133 7.58931 0 0 0
738 2 -17.8687 41.168 2.05559 0 0 0
739 2 -16.8777 40.181 4.17559 0 0 0
740 2 -17.3687 40.961 5.66859 0 0 0
741 2 -18.9347 42.539 2.29259 0 0 0
742 2 -18.7147 42.52 4.60459 0 0 0
743 2 31.5302 38.5755 42.4262 0 0 0
744 2 -21.369 37.5885 0.522239 0 0 0
745 2 -21.86 38.3685 2.01524 0 0 0
746 2 30.4642 39.9465 42.6632 0 0 0
747 2 30.6842 39.9275 0.951239 0 0 0
748 2 -22.3605 43.7613 16.0463 0 0 0
749 2 -21.3695 42.7743 18.1663 0 0 0
750 2 -21.8605 43.5543 19.6593 0 0 0
751 2 -23.4265 45.1323 16.2833 0 0 0
752 2 -23.2065 45.1133 18.5953 0 0 0
753 2 -17.8687 41.168 13.0616 0 0 0
754 2 -16.8777 40.181 15.1816 0 0 0
755 2 -17.3687 40.961 16.6746 0 0 0
756 2 -18.9347 42.539 13.2986 0 0 0
757 2 -18.7147 42.52 15.6106 0 0 0
758 2 31.5302 38.5755 9.40824 0 0 0
759 2 -21.369 37.5885 11.5282 0 0 0
760 2 -21.86 38.3685 13.0212 0 0 0
761 2 30.4642 39.9465 9.64524 0 0 0
762 2 30.6842 39.9275 11.9572 0 0 0
763 2 -22.3605 43.7613 27.0523 0 0 0
764 2 -21.3695 42.7743 29.1723 0 0 0
765 2 -21.8605 43.5543 30.6653 0 0 0
766 2 -23.4265 45.1323 27.2893 0 0 0
767 2 -23.2065 45.1133 29.6013 0 0 0
768 2 -17.8687 41.168 24.0676 0 0 0
769 2 -16.8777 40.181 26.1876 0 0 0
770 2 -17.3687 40.961 27.6806 0 0 0
771 2 -18.9347 42.539 24.3046 0 0 0
772 2 -18.7147 42.52 26.6166 0 0 0
773 2 31.5302 38.5755 20.4142 0 0 0
774 2 -21.369 37.5885 22.5342 0 0 0
775 2 -21.86 38.3685 24.0272 0 0 0
776 2 30.4642 39.9465 20.6512 0 0 0
777 2 30.6842 39.9275 22.9632 0 0 0
778 2 -22.3605 43.7613 38.0583 0 0 0
779 2 -21.3695 42.7743 40.1783 0 0 0
780 2 -21.8605 43.5543 41.6713 0 0 0
781 2 -23.4265 45.1323 38.2953 0 0 0
782 2 -23.2065 45.1133 40.6073 0 0 0
783 2 -17.8687 41.168 35.0736 0 0 0
784 2 -16.8777 40.181 37.1936 0 0 0
785 2 -17.3687 40.961 38.6866 0 0 0
786 2 -18.9347 42.539 35.3106 0 0 0
787 2 -18.7147 42.52 37.6226 0 0 0
788 2 31.5302 38.5755 31.4202 0 0 0
789 2 -21.369 37.5885 33.5402 0 0 0
790 2 -21.86 38.3685 35.0332 0 0 0
791 2 30.4642 39.9465 31.6572 0 0 0
792 2 30.6842 39.9275 33.9692 0 0 0
793 2 9.07547 4.86945 5.04031 0 0 0
794 2 10.0665 3.88245 7.16031 0 0 0
795 2 9.57547 4.66245 8.65331 0 0 0
796 2 8.00947 6.24045 5.27731 0 0 0
797 2 8.22947 6.22145 7.58931 0 0 0
798 2 13.5672 2.27613 2.05559 0 0 0
799 2 14.5582 1.28913 4.17559 0 0 0
800 2 14.0672 2.06913 5.66859 0 0 0
801 2 12.5012 3.64713 2.29259 0 0 0
802 2 12.7212 3.62813 4.60459 0 0 0
803 2 -17.8692 46.3539 42.4262 0 0 0
804 2 -16.8782 45.3669 0.522239 0 0 0
805 2 -17.3692 46.1469 2.01524 0 0 0
806 2 8.00991 1.0546 42.6632 0 0 0
807 2 8.22991 1.0356 0.951239 0 0 0
808 2 9.07547 4.86945 16.0463 0 0 0
809 2 10.0665 3.88245 18.1663 0 0 0
810 2 9.57547 4.66245 19.6593 0 0 0
811 2 8.00947 6.24045 16.2833 0 0 0
812 2 8.22947 6.22145 18.5953 0 0 0
813 2 13.5672 2.27613 13.0616 0 0 0
814 2 14.5582 1.28913 15.1816 0 0 0
815 2 14.0672 2.06913 16.6746 0 0 0
816 2 12.5012 3.64713 13.2986 0 0 0