LAMMPS data file via write_data, version 29 Aug 2024, timestep = 10000, units = metal

1280 atoms
3 atom types

0 23.496 xlo xhi
0 23.496 ylo yhi
0 97 zlo zhi
0 0 0 xy xz yz

Masses

1 79.904
2 132.904999
3 207.199997

Atoms # atomic

1040 3 3.5016108983225247 2.587049373964712 3.134524120342371 0 0 0
48 1 0.3185928293417321 2.7225410284650047 3.265449497675304 0 0 0
46 1 3.39853116151578 2.804953339942174 0.4945711064037332 0 0 0
228 1 6.467092248253566 2.9846817026497496 2.383281802986833 0 0 0
1100 3 9.306222730800515 3.0874323030720565 3.183287805681071 0 0 0
227 1 8.607998860693007 0.2510581749220185 3.209225606615731 0 0 0
844 2 6.503843088286526 0.08459223730388729 0.34124882634551773 0 0 0
240 1 12.3071887171603 2.4104999105551648 3.528221422970454 0 0 0
226 1 10.010124753518692 2.9568242126324398 0.15281216187452376 0 0 0
36 1 18.146044352655178 3.576220687381797 2.927082482675537 -1 0 0
1104 3 15.084282521382082 2.9470494448117783 2.9815611433676823 0 0 0
239 1 15.343007513297117 0.18699914752849306 3.1412002875837506 0 0 0
238 1 15.837527687480357 2.6801168705355507 0.2360684651256753 0 0 0
1036 3 21.137700229691138 3.0947408260551654 3.526051737779909 -1 0 0
35 1 20.900741920999376 0.021105723905590876 2.911007593405833 -1 0 0
34 1 20.920672982479925 2.5528110129510697 0.11981913236024161 -1 0 0
137 1 3.3958983541243937 5.840861173398465 3.3247788879902185 0 0 0
1070 3 3.7760480357443433 8.625469881668947 3.305014047242891 0 0 0
138 1 0.9415609218752424 8.767415386419744 3.2906103193633247 0 0 0
814 2 1.0263036584621688 5.420686708397604 0.5646526109843772 0 0 0
136 1 3.74417234714816 7.831183559422431 0.16961863028689123 0 0 0
1130 3 9.224108866432301 8.815646774755777 2.961516596764851 0 0 0
318 1 6.436638343300707 7.635794296063504 2.8471250744668204 0 0 0
874 2 6.819501978098773 5.5356221627995685 0.35532923501805913 0 0 0
317 1 9.763494813534145 6.0301033752963304 2.4261982673847458 0 0 0
316 1 10.416033117510242 8.48723139586902 0.039721097369755515 0 0 0
330 1 12.231191968948556 9.002837091133845 3.685653300717851 0 0 0
329 1 14.32429977194475 6.061331306278953 2.894806581163954 0 0 0
126 1 18.18049668381889 8.792746005199609 2.944311213121723 -1 0 0
1134 3 15.08760607759004 8.819394120710232 2.9378703054515625 0 0 0
328 1 14.845009162688578 8.535285908671296 0.16304076443166535 0 0 0
125 1 21.74963324949678 5.874430829283987 3.6179839159854286 -1 0 0
1066 3 21.36629880752953 8.600297673987125 3.0012616271282893 -1 0 0
124 1 20.723068546044576 8.060735763799586 0.27335846964940114 -1 0 0
143 1 4.107981819887631 11.61986862578828 3.4911278229449465 0 0 0
816 2 0.9282333396246645 12.147524721028272 0.01906385046809433 0 0 0
142 1 3.740128709894156 14.016979295263496 0.46936266950958294 0 0 0
323 1 8.684066327911388 11.887756225294211 2.8397567385452698 0 0 0
876 2 6.366844365311085 10.904494164093085 0.2787623214560496 0 0 0
335 1 15.073841665610788 11.76037281481148 2.835744059443273 0 0 0
812 2 17.875646121210195 11.962334080862837 0.35213145600118756 -1 0 0
131 1 20.592889865326132 11.876326450458297 3.433460524363449 -1 0 0
41 1 2.9553623815274794 17.41384659167383 3.0744968659686607 0 -1 0
1072 3 3.657023142923187 14.474118236936784 3.4169280244838096 0 0 0
144 1 0.6417301940730662 14.407412234652739 3.3929901133173686 0 0 0
782 2 0.41961061423109036 17.123629719975675 0.6081999552394511 0 -1 0
324 1 6.663291841409931 15.016964024546946 3.6738801762826094 0 0 0
1132 3 9.17948432185267 14.941116204738963 2.7429981382764455 0 0 0
336 1 12.086658572336752 14.830082603155622 2.6872563996687333 0 0 0
221 1 9.88331421295501 18.033798295629396 2.52797515181217 0 -1 0
846 2 12.762816517134246 17.46868686545485 0.2442677707569497 0 -1 0
233 1 14.549214670102405 17.854405335365442 3.0312904303188892 0 -1 0
1136 3 14.769820497644742 14.62532531996896 2.9784818979796466 0 0 0
132 1 17.972053952079374 15.143088349652176 2.700142484699626 -1 0 0
130 1 21.401852544726168 14.343808382641022 0.22340796957052234 -1 0 0
29 1 20.94560337046875 17.582239186200134 4.054413994817897 -1 -1 0
1068 3 20.94485290005426 14.751157663301015 3.119596274165938 -1 0 0
47 1 3.0605206952474924 23.275131149205293 3.3741557768332644 0 -1 0
1038 3 3.234294496120797 20.28277679741628 3.0859323019258076 0 -1 0
40 1 3.4599261594792594 20.26460090904993 0.10040011344119863 0 -1 0
42 1 0.1025527663523388 20.023793027542332 3.162504717431024 0 -1 0
222 1 6.118442089658084 20.51241442103527 3.212320187146432 0 -1 0
1098 3 9.23398273459618 20.84109384660176 3.041466801215254 0 -1 0
234 1 12.284048161660312 21.03759724470253 2.6881691405785393 0 -1 0
30 1 17.99888783929105 19.97918759923607 3.519159164598828 -1 -1 0
1102 3 15.17491503855184 20.808685436519017 2.9551408076347188 0 -1 0
780 2 18.624180085207122 22.98415631908822 0.1747241438955738 -1 -1 0
1034 3 20.84303072911856 20.484275074857397 3.4208851450502675 -1 -1 0
28 1 20.914517967805832 19.702950399391305 0.015791608573085134 -1 -1 0
67 1 3.733230208381973 3.134758697839756 6.109604169841053 0 0 0
69 1 0.22673466412896373 2.8569850129166934 8.664536404428127 0 0 0
791 2 0.5402360103998138 0.35178887864573194 6.112166694460768 0 0 0
1047 3 3.44851429958424 2.8472422462345115 9.125928135213606 0 0 0
247 1 8.193442029976934 3.497443618067646 6.257332841666796 0 0 0
1107 3 9.430284548057845 3.4212433420329345 8.886754382573656 0 0 0
261 1 11.982127238018066 3.0758769735191938 7.940264152387852 0 0 0
248 1 9.751875539859462 0.443587822250579 8.81748381094456 0 0 0
259 1 15.707655432534432 3.3639884641538953 6.016489111746923 0 0 0
1111 3 14.918877629990849 3.373162306343743 8.79244629810209 0 0 0
57 1 17.781504145456374 3.2382722408793376 8.819292901743419 -1 0 0
787 2 17.588840408421802 0.3884522145557239 6.142055978639518 -1 0 0
55 1 20.60674890470292 3.3268439902765548 6.323258451348838 -1 0 0
821 2 0.6345019365686895 5.91967151007261 6.079499299772938 0 0 0
157 1 3.2223617664460518 8.89264288294565 6.135070176697066 0 0 0
159 1 0.4567212107373885 8.959576449203123 8.658467665848825 0 0 0
158 1 3.487149403833427 5.888344406336782 8.456412135252247 0 0 0
881 2 5.9890802235049785 6.2425615750634975 6.196085214261155 0 0 0
337 1 8.75145773137083 8.32615382154404 5.827116271197035 0 0 0
339 1 6.4431518477791 8.404444584289417 9.155778953907939 0 0 0
1137 3 9.292187780955073 9.071000901447846 9.197109787605562 0 0 0
338 1 10.618299210950903 6.7511748863015155 8.986531499020506 0 0 0
885 2 12.239403630620274 6.248894360061636 5.986523205480372 0 0 0
349 1 14.91485609572096 9.146842864067459 5.880900988733863 0 0 0
817 2 18.517907227753135 6.39852664973228 5.777962089165702 -1 0 0
147 1 17.677061344140206 8.914215963969623 8.354514616332047 -1 0 0
350 1 15.018519620197512 6.192655060427704 8.987082225895746 0 0 0
145 1 21.15808518103737 8.988127561326236 6.005307273689824 -1 0 0
1073 3 21.03853562800255 9.324641526009328 8.982629475241477 -1 0 0
146 1 21.62332573492569 6.330155809693731 8.899607407747672 -1 0 0
823 2 0.48828314372863596 11.480717376526085 5.758393887737725 0 0 0
163 1 3.4702211556250027 13.954465678672511 6.323714668729433 0 0 0
883 2 6.3300490586629286 11.293153909189886 6.191664733806409 0 0 0
344 1 8.788915296046262 12.13316430768231 8.267363094927832 0 0 0
887 2 12.515506450983109 12.248577336366724 6.385121962201016 0 0 0
356 1 16.011433651920534 12.079241407405938 8.860012238877955 0 0 0
819 2 17.772028623794068 11.349048927762418 5.538140266423825 -1 0 0
165 1 0.4402531848162053 14.698102427043734 8.384601792379232 0 0 0
62 1 3.150372867093625 17.514141463851885 8.26063829522373 0 -1 0
1079 3 3.3889243089714562 14.6920394764817 9.005425165042274 0 0 0
789 2 0.511379202271329 17.997279921346976 5.778701186107384 0 -1 0
849 2 6.269245857174744 17.956775303155485 5.766145936785337 0 -1 0
345 1 6.911149308134651 15.377878002480315 8.20850268250809 0 0 0
1139 3 9.673181028845002 14.929889968649503 8.556327913437489 0 0 0
343 1 10.362566914483004 15.302554695472736 5.884678285476291 0 0 0
853 2 12.48887820232237 18.55098499964976 5.981625458191493 0 -1 0
242 1 10.063562312045612 17.931455293013176 8.827474854608798 0 -1 0
355 1 15.024387809386152 14.511185130219141 6.024601102506543 0 0 0
1143 3 15.110536708068016 14.833231773654273 8.772301112856137 0 0 0
785 2 17.656750607248323 16.984371202414952 5.429334105432051 -1 -1 0
254 1 15.344998114099175 17.870204824954197 8.37009350602393 0 -1 0
1075 3 21.05689243013224 14.977514003780412 8.745367833254068 -1 0 0
151 1 20.11354885479587 14.23554727049229 5.870943512072003 -1 0 0
61 1 3.9001894540526543 20.715560758213545 6.105969151931846 0 -1 0
63 1 0.4394134647746718 21.334592942815515 8.717717219435992 0 -1 0
1045 3 3.2098083021688337 20.529801775660623 8.812178114951328 0 -1 0
851 2 6.7085847500246345 23.489036670326563 6.384375778909658 0 -1 0
1105 3 9.327955456084705 20.78859478079985 8.89828106833337 0 -1 0
243 1 6.470327233163022 20.52543186377714 8.83565648385533 0 -1 0
241 1 9.011237019979925 20.48422354588825 5.942140427390293 0 -1 0
855 2 11.825500250098507 23.429413533747223 5.906101117150683 0 -1 0
255 1 12.586586919008562 20.99877861616593 8.730278975773519 0 -1 0
253 1 15.191490403405998 21.064355476198394 6.137250384193599 0 -1 0
1109 3 15.56117639970958 20.862491997106442 8.95807466284674 0 -1 0
49 1 20.269404486903888 20.80352756033723 6.214667072127462 -1 -1 0
1041 3 20.92306470930451 20.805252430111416 9.199802106397163 -1 -1 0
70 1 3.2309960465055707 3.4371929863260595 12.180530524483578 0 0 0
792 2 0.3583861565242595 0.5174906571596202 11.621446773859121 0 0 0
249 1 6.438598015861868 3.064461346449581 9.808818450485836 0 0 0
852 2 5.88565356541794 0.8520213317949425 12.221173363266688 0 0 0
250 1 10.009502734925615 4.295620624421209 12.086421344096548 0 0 0
260 1 15.456572657181693 0.5104483865062726 9.381198943382042 0 0 0
262 1 15.080243944778342 3.620017687200969 11.856253851522364 0 0 0
788 2 18.19070000961999 0.3304442687661926 12.272251399693284 -1 0 0
1043 3 20.939828843906596 3.4570543328882706 9.432118579800045 -1 0 0
56 1 20.5310025217257 0.7465172756629932 10.102309967830065 -1 0 0
58 1 21.888884973248746 3.913537561477428 12.201677542198146 -1 0 0
1077 3 3.317754649955151 8.834674378378104 9.255346114787368 0 0 0
160 1 3.3103387496984484 8.550755866261587 12.194619354774565 0 0 0
822 2 0.7183382883158379 6.107374731307633 11.863430374629813 0 0 0
882 2 7.112388400656318 6.466492199150847 11.938652783333982 0 0 0
886 2 12.887486668110126 6.227923252373116 12.198888752834828 0 0 0
1141 3 15.087144124063412 9.172269558232287 9.238570343864557 0 0 0
818 2 18.407211924997842 6.2473522214896615 12.237366055520804 -1 0 0
148 1 20.530306079277775 9.065233174092869 11.71980679274713 -1 0 0
164 1 3.086920740489986 11.769925997824718 10.207750897260386 0 0 0
824 2 0.5487608747979299 12.56281131579718 11.959651630132543 0 0 0
340 1 8.993302216545127 9.595089692342443 11.740423682291588 0 0 0
884 2 6.103110235384752 11.938043652934784 12.426800796595796 0 0 0
351 1 12.169812307200147 10.233051628457838 9.71081896114039 0 0 0
888 2 12.427349662929414 12.219503575102685 12.655856053590236 0 0 0
352 1 15.22795045797047 10.15532610202785 11.797792443151586 0 0 0
820 2 18.103342803243134 12.26787985463651 11.993238721984447 -1 0 0
152 1 21.417696876162324 12.239521551787117 9.274475207405539 -1 0 0
166 1 2.928274878244813 15.212587504040346 12.001642290780163 0 0 0
790 2 0.175354084231938 17.752743097921762 12.164955257595468 0 -1 0
850 2 6.420782205076058 17.878082604861973 11.100220042028392 0 -1 0
346 1 9.131014422117776 15.475046013288676 11.6490436407206 0 0 0
357 1 12.431049582501089 14.399261706838011 10.07789253327164 0 0 0
854 2 12.42171575097404 18.484816793368505 11.695995292999417 0 -1 0
358 1 15.732373412198223 14.831936543633576 11.937599071606124 0 0 0
153 1 18.32376620319673 14.969942524254158 9.65655195613653 -1 0 0
786 2 17.96271501482019 17.581571583832897 11.723397589247043 -1 -1 0
50 1 21.15565489469546 18.098619287458746 9.367770633310029 -1 -1 0
154 1 21.401591837404013 15.575213721265513 11.711116914840504 -1 0 0
68 1 3.4990699414663653 23.39192740055833 9.975694283821952 0 -1 0
64 1 3.548821418881993 20.495929768472134 11.982592174190353 0 -1 0
244 1 9.136846340679327 20.468670803217602 11.949124627679158 0 -1 0
856 2 12.080838379945716 23.448508294784997 11.574977863183731 0 -1 0
51 1 18.222976416862235 20.90474875848458 9.858856166871263 -1 -1 0
256 1 15.286111084561727 21.14384781194323 11.87363506998468 0 -1 0
52 1 21.863398786111947 20.760171171504155 12.202164377727794 -1 -1 0
91 1 3.725448692796834 3.5026033169238415 18.31007898189809 0 0 0
1048 3 3.4168093069130046 3.152947531406714 15.296632715880294 0 0 0
72 1 0.3781796990502365 3.4644720793246915 15.532365437639882 0 0 0
799 2 1.5271778961259173 0.7674651004694186 17.92257136292145 0 0 0
71 1 4.211273810054659 0.2164362299888234 15.282918531048516 0 0 0
252 1 6.126195092925527 2.909143031442626 15.278536264817747 0 0 0
271 1 9.05246825200392 3.5341553068919547 17.655806302233024 0 0 0
1108 3 9.218072979556993 3.075642861126175 14.730690029540408 0 0 0
859 2 6.46217518958558 0.2441716554119379 18.372774839213818 0 0 0
251 1 8.730782998177602 0.2075980673959178 13.951354867336129 0 0 0
264 1 12.010816036287641 2.6303267182170407 14.959034027795386 0 0 0
863 2 12.354843445417144 0.1859996335924643 17.891486236392712 0 0 0
60 1 17.897062411221487 3.808207427039722 14.423800539042452 -1 0 0
1112 3 14.973658096616678 3.245936578931117 14.856985929482805 0 0 0
283 1 15.23063805252028 3.9312296086766665 17.603636671371916 0 0 0
263 1 15.377862948084944 0.565556156544559 15.509438288930108 0 0 0
795 2 17.657341589741563 1.4241906555725679 18.024983763835756 -1 0 0
79 1 20.738621374144163 3.5299678938714547 18.099539626979638 -1 0 0
1044 3 20.877760587572045 3.1287211988807178 14.832702382057914 -1 0 0
59 1 21.09321973124443 0.41844784149579733 14.16328702265339 -1 0 0
161 1 3.4308417272722904 6.275505932296503 15.899151002260247 0 0 0
181 1 2.027571440623715 9.329639186691947 18.367662986235615 0 0 0
1078 3 3.03075041535576 9.106761759766421 15.587671896279575 0 0 0
829 2 0.17743363948735968 5.5840428767894155 18.366631807000584 0 0 0
162 1 0.2942089385522973 8.094188884181834 14.964089140319219 0 0 0
889 2 6.762879692190852 6.211816102838879 18.163030785353524 0 0 0
1138 3 8.91356382520761 9.280195821174106 14.785747741074443 0 0 0
342 1 6.034865768528655 8.915970052628557 14.644899034857037 0 0 0
341 1 8.824058839903662 6.4752164844918765 15.140314326532168 0 0 0
354 1 12.062164796952002 9.01548686172536 14.734108058450568 0 0 0
893 2 11.636989498886756 6.753208328224235 18.325517642961977 0 0 0
353 1 14.588139384457536 6.237794571046706 15.059708720697184 0 0 0
825 2 17.347475892083533 6.41756196799549 17.850810321983417 -1 0 0
1142 3 14.87922250698232 9.360844425695927 14.672253362217319 0 0 0
150 1 18.197537482383048 9.17778938746302 14.823091637646282 -1 0 0
149 1 20.86201761625757 6.209234740145523 16.00537408989967 -1 0 0
1074 3 21.12055607271405 8.850458841584187 14.788725296393253 -1 0 0
167 1 2.9291438238105267 12.071204737197796 15.079453866159655 0 0 0
831 2 0.2318943799620523 12.47231594762822 17.752989500678172 0 0 0
361 1 8.70249462754675 9.604150673777339 17.716626404051514 0 0 0
891 2 6.264261042092753 11.946025170889895 18.038122851407028 0 0 0
347 1 9.42475241756157 12.397705749304052 14.856126625768908 0 0 0
895 2 12.054531877008012 12.510459013864487 17.6665924770746 0 0 0
373 1 14.958793214569393 9.564450698780762 17.72791985947822 0 0 0
359 1 15.842530537692596 12.371783524429526 15.00852522712909 0 0 0
827 2 17.815370639306476 11.97398095574356 17.918282487699656 -1 0 0
169 1 20.792126733829118 10.132682873533795 17.270429562532488 -1 0 0
155 1 20.29934207481845 12.914548617211853 14.792846723017906 -1 0 0
187 1 3.326004953065702 15.1094042438891 17.955911386232593 0 0 0
1080 3 3.192261649199501 15.314938891205992 15.259624776358743 0 0 0
168 1 0.36413213973794817 14.89317989876858 14.978355327971611 0 0 0
65 1 2.3475497780228283 18.178829455287886 15.48975216075982 0 -1 0
797 2 0.5412768209276649 17.464641623853844 18.37058974434799 0 -1 0
367 1 9.364730395707973 14.647194611422579 17.850417627373336 0 0 0
348 1 6.1217137171549165 15.109228634521026 14.211484099013848 0 0 0
857 2 6.344602302199902 18.646679252558126 18.118347086786233 0 -1 0
245 1 8.582293464225591 18.229176252653872 15.171820125068948 0 -1 0
360 1 12.280150408576771 15.357317493591047 14.224857612928492 0 0 0
1140 3 9.498097964590483 15.315601593638654 14.58243620095725 0 0 0
861 2 11.34422928011946 17.320078093110105 17.389522751822252 0 -1 0
156 1 18.103727338523242 15.80869191316665 15.2841716389186 -1 0 0
379 1 14.301553348975409 15.805258034868114 17.776936102912092 0 0 0
1144 3 15.445723318339759 15.301311874864528 14.591664367886821 0 0 0
257 1 15.197844096675285 18.17858370694111 14.767867407352153 0 -1 0
793 2 18.05207335759692 18.441628503602217 17.615822884951648 -1 -1 0
1076 3 21.229025368807022 15.386169871934014 14.836365808922622 -1 0 0
175 1 21.18396892041259 15.219370571955787 17.773670222165567 -1 0 0
53 1 20.96617065526078 18.17989108950065 15.55552979982117 -1 -1 0
85 1 3.4137225839029544 21.036242775889946 17.827194394093226 0 -1 0
1046 3 3.4789832221373604 21.12236768198613 14.735925653815402 0 -1 0
66 1 0.7252543896211818 22.17257509569733 14.816497348073838 0 -1 0
246 1 6.472053818174204 20.954150404028525 15.01274904721831 0 -1 0
1106 3 9.471460882747479 20.995096760977813 14.814257955075814 0 -1 0
265 1 9.684496264661664 21.568584605137954 17.85735506032566 0 -1 0
258 1 12.373898779621783 20.69305307145363 14.575965749920154 0 -1 0
277 1 15.466396432146585 21.274654289301772 18.056632020215353 0 -1 0
54 1 18.49753155805714 20.844274312377976 14.275048200122805 -1 -1 0
1110 3 15.323571422061235 21.11803798250737 14.72508524686234 0 -1 0
73 1 19.90766683489159 21.90053039092723 17.901256747149414 -1 -1 0
1042 3 21.314767776836778 20.746527414891084 14.96560027713241 -1 -1 0
1055 3 3.2137776609511475 3.583388042066287 21.30686460552024 0 0 0
92 1 3.1277173484957146 0.44138675460611926 21.647299013561422 0 0 0
800 2 0.29080271697484034 0.21046754444971208 23.05030355801726 0 0 0
273 1 5.941737061768721 3.88067425132517 20.59558155978179 0 0 0
1115 3 9.054945713610664 3.518519006795059 20.76711308232621 0 0 0
272 1 8.754142273596374 0.5543224489402766 21.097727303845506 0 0 0
285 1 12.323590330218572 3.430524498272926 20.44836579201982 0 0 0
1119 3 14.899194963640051 3.348561913723324 21.002118795293097 0 0 0
81 1 17.679713839610397 3.819365403029317 21.19463515935293 -1 0 0
284 1 15.493614887833402 0.25651753984515857 20.75577516956505 0 0 0
93 1 23.44218358357543 2.5774254070544522 20.186631339045277 -1 0 0
1051 3 20.86618820448394 3.295182827196063 21.17806589070625 -1 0 0
80 1 19.764386298032644 0.7151666154514759 20.859934288608017 -1 0 0
182 1 3.0961162128589743 6.552458440629707 21.164706682109262 0 0 0
362 1 9.038692624965483 6.318417547152406 20.85132885988292 0 0 0
363 1 5.596199588775921 8.963934209450816 20.151760999420187 0 0 0
894 2 12.003437632853476 6.573847491473837 23.033704087832348 0 0 0
374 1 15.107592966329978 6.483204041059315 20.519034534053475 0 0 0
171 1 17.901525178053266 9.227232762079645 20.12364859882976 -1 0 0
826 2 17.92007250069235 6.761235203281232 23.084537869260053 -1 0 0
170 1 20.634347473722308 6.482397012987637 20.45775303844726 -1 0 0
1085 3 2.8776742573111522 9.470407139898587 21.04641810524217 0 0 0
188 1 3.669560173666758 12.112399832504416 21.244087873267244 0 0 0
1145 3 8.677775854528827 9.460766337497779 20.742448306646327 0 0 0
368 1 8.7371179716912 12.119819777775584 20.752256041241218 0 0 0
375 1 11.934744321330987 9.67265749460161 20.398002156614528 0 0 0
1149 3 14.943732344925573 9.635487272674695 20.727375083083416 0 0 0
380 1 14.683455586675723 12.474254630106099 21.14076984718318 0 0 0
183 1 23.46893967881632 10.844182673697022 21.37166899628314 -1 0 0
1081 3 21.06216773624681 9.536043712725593 20.59428110555694 -1 0 0
176 1 20.121056734725137 12.681160057564856 21.01042521958733 -1 0 0
1087 3 3.0695478831586387 15.058577465421175 20.970131049270304 0 0 0
86 1 2.566537643979382 17.983236565072172 21.111285431439878 0 -1 0
189 1 0.15112183386265507 14.917092825824625 20.96230139988576 0 0 0
1147 3 8.985052619361506 15.447684521955784 21.153686962445438 0 0 0
369 1 5.877616405773714 15.855643383892795 20.20161047721758 0 0 0
266 1 8.82980369495775 18.28838718206937 20.68746590753817 0 -1 0
381 1 11.622384716392585 14.67102303067881 21.091414813400867 0 0 0
278 1 12.359066793474272 18.173444107249455 20.42918939598025 0 -1 0
177 1 17.899722430856723 15.147894928647005 20.02073897973897 -1 0 0
1151 3 14.123603185134842 15.9141611742556 20.63316671197808 0 0 0
281 1 15.999550825013905 17.916225484721473 20.72420278768803 0 -1 0
74 1 21.24475615521043 18.4644235608453 20.76020150940573 -1 -1 0
1083 3 20.64848308380099 15.482764165120336 20.749670449156646 -1 0 0
1053 3 3.2113187942795065 20.871372587884075 21.352860980004134 0 -1 0
87 1 0.21160229876635384 21.25486302666416 20.033867662729925 0 -1 0
267 1 6.058589290093543 21.009682958307902 20.92962394839788 0 -1 0
1113 3 9.177531850936713 21.061600983077312 21.047960342486817 0 -1 0
279 1 11.987150387632493 21.479684661468937 21.003375488673672 0 -1 0
75 1 18.0691050298934 21.165870439682635 21.822282054722834 -1 -1 0
1117 3 15.003110949121867 20.696913827500428 20.904911628339146 0 -1 0
1049 3 20.74196979111387 21.313037190650533 20.581421880429016 -1 -1 0
94 1 3.0646581617720807 3.3863363015209096 24.260944027066177 0 0 0
1056 3 2.792021932065065 3.161499564307364 27.183220935337957 0 0 0
95 1 3.366810465017744 0.2577864956241394 26.640409426666892 0 0 0
96 1 0.05561012603950537 3.75518598117312 26.75465962228424 0 0 0
276 1 5.949747365267343 4.196984436563401 27.586301235503594 0 0 0
1116 3 8.614194189403591 3.7710290060950875 26.83934334334446 0 0 0
274 1 9.146817193411088 3.4745001275618215 23.72550404961129 0 0 0
860 2 5.748269671269495 0.7180227051650486 23.96183373518965 0 0 0
275 1 8.115813254693819 0.7052534663605313 26.54837047124981 0 0 0
288 1 12.120158852723293 2.839964254015555 27.36082525548633 0 0 0
864 2 11.348193341215776 0.22425317304191864 25.149790238649363 0 0 0
286 1 14.113427090222697 3.795725526967537 24.170409372464444 0 0 0
796 2 17.38351058896489 0.7407532142663086 23.593338175514273 -1 0 0
84 1 17.59710901790771 4.474750228363065 25.96226178432497 -1 0 0
1120 3 15.070934515476345 3.198274325223734 26.90576778355699 0 0 0
287 1 14.86750278338296 0.39356960751931896 26.476987499051635 0 0 0
82 1 21.748290213055114 4.188137777273836 23.571312295409182 -1 0 0
1052 3 20.527319019192536 3.4228746881077634 26.58390060941816 -1 0 0
83 1 20.28533674137586 0.6900831066259637 24.756962187878123 -1 0 0
184 1 2.775066677614185 9.24697279390366 24.060792325327895 0 0 0
185 1 2.832099241816315 6.404411716128169 26.474457038479944 0 0 0
1086 3 2.8577236353402533 9.140260619934725 27.005721668436692 0 0 0
890 2 5.909465470364653 5.845818775463129 24.34527346490553 0 0 0
1146 3 9.056739740065723 8.805587231894247 26.458655942639737 0 0 0
366 1 5.890909638455489 8.750617815643386 26.907053639212027 0 0 0
364 1 8.569720017505709 9.2300900383247 23.675959165058643 0 0 0
365 1 9.753314082726064 6.2774901989216065 25.44435939919346 0 0 0
377 1 14.564911464864288 6.63204381893612 27.440564122791262 0 0 0
1150 3 15.310804542312782 9.292987300554739 26.1730079000721 0 0 0
174 1 18.264295161859852 9.150194983750058 26.14136843952164 -1 0 0
376 1 15.01014663285799 8.47892845738918 23.371437819098638 0 0 0
830 2 23.314817642947357 7.242250802866886 24.418502341760135 -1 0 0
173 1 21.127212261600253 6.052578484991774 27.65279402450864 -1 0 0
191 1 3.342644077655148 12.284630672599885 27.524334163410785 0 0 0
832 2 0.6505767285241724 12.67881185380727 24.5611400818772 0 0 0
892 2 5.431054995285585 11.80238897134767 24.77731505838678 0 0 0
371 1 8.415354917241517 11.815347413514667 26.90105609547183 0 0 0
896 2 11.65928392770897 12.372400416020405 23.399861293875812 0 0 0
378 1 11.89500875122493 9.633761100418223 25.07010239085812 0 0 0
828 2 18.173928836581936 12.727658667348171 24.135354075794936 -1 0 0
383 1 14.875749348168759 12.339108284010688 25.23878171871245 0 0 0
186 1 22.98495883511403 10.31603562663136 26.68933790661874 -1 0 0
172 1 20.30419916634841 9.773239213479485 23.466902517500273 -1 0 0
179 1 20.02655657700131 12.069453504348461 27.643152369512144 -1 0 0
192 1 0.5581732941827738 14.830557558712231 27.646841347883417 0 0 0
1088 3 3.5569533916006972 14.98627199299548 27.42736273336812 0 0 0
190 1 3.5452760955507485 15.062160438870306 24.075835424370766 0 0 0
89 1 3.5275135394460397 18.028869480049277 26.367429998336526 0 -1 0
858 2 5.798382912013134 18.167195880197095 23.874197848376006 0 -1 0
370 1 8.914898140778636 16.176045773267692 23.915355104923925 0 0 0
1148 3 9.13607033266647 16.57926587464384 27.22820714420993 0 0 0
384 1 11.280540599522894 14.349952634324595 26.784272894741495 0 0 0
282 1 11.557875188053544 18.295947355594997 26.49548426814424 0 -1 0
1152 3 13.904412648258125 15.764538916969343 26.135393104386264 0 0 0
794 2 18.531280191506376 17.378543211844878 23.48213352021777 -1 -1 0
180 1 17.66464041618819 15.435115573813777 26.224383885056074 -1 0 0
382 1 14.840374887243797 16.293462169760016 23.656116199991555 0 0 0
674 1 15.11208361322331 18.55196601532405 26.923651768663532 0 0 0
798 2 23.460833875016355 17.64501978276427 24.32008582419869 -1 -1 0
178 1 21.18372122097807 14.415224287244582 24.566172428330677 -1 0 0
1084 3 21.19843873215447 15.027574928685002 27.25671060670002 -1 0 0
77 1 20.671713372542488 17.72020235248669 27.056325528082205 -1 -1 0
88 1 2.247098771924659 21.031618951677043 24.085700994699057 0 -1 0
1054 3 3.476274329196219 20.60200230785219 26.77748244931765 0 -1 0
90 1 0.4368280443039273 20.30857262819213 26.904511234180738 0 -1 0
270 1 5.966960690880637 21.110525461799437 25.606516262536427 0 -1 0
268 1 9.048107822460981 21.6442682193679 23.69921657309518 0 -1 0
862 2 11.434165416142616 19.033083624320987 23.36702567602177 0 -1 0
280 1 14.692640291915142 20.94240096635841 24.0332925549789 0 -1 0
78 1 18.343836942013436 20.41305404693363 25.059131016249562 -1 -1 0
1118 3 16.16735908734093 21.25194838407744 26.799585875375417 0 -1 0
76 1 21.89353649246714 20.77860167598541 23.47628168786303 -1 -1 0
1050 3 20.56697574201078 21.574710348612456 25.894185035092537 -1 -1 0
386 1 3.432971059050558 3.26215755310161 30.238873320989786 0 0 0
1219 3 5.937858545015879 2.13394969873287 31.65498852420154 0 0 0
600 1 8.568250275670843 0.6302098296903507 30.861367770016262 0 0 0
581 1 9.269205358266353 3.964145148512717 29.50566217239501 0 0 0
1221 3 13.85485766637723 0.7539114109444222 29.545347878575004 0 0 0
580 1 12.091866285824597 0.0687545626575052 31.74264934878476 0 0 0
968 2 11.466667361704328 4.586211612869572 31.860354880002824 0 0 0
578 1 14.278913859196033 3.688322754061278 30.34415487117127 0 0 0
388 1 16.586519829778943 0.2421020656134424 30.79802128815096 -1 0 0
408 1 19.2694518909987 2.4400636112184344 29.08053117991613 -1 0 0
493 1 22.06724234306529 2.394326732980143 31.934952666446602 -1 0 0
404 1 23.255488167171297 0.6085047038639767 28.93724079057963 -1 0 0
500 1 2.949117786942775 8.315893573943708 29.99812150251614 0 0 0
933 2 0.38113349566385996 5.292641712830216 29.809806025851127 0 0 0
898 2 6.546845445302957 6.5011628053297885 29.971310207643214 0 0 0
1223 3 11.709758210821228 5.902046717347238 27.856827036956304 0 0 0
593 1 10.897302287737347 8.530580220232974 28.895856313991178 0 0 0
688 1 13.918437122567683 7.173313535500872 31.216367192624148 0 0 0
962 2 17.68802118278171 6.133136188764842 29.149503847136483 0 0 0
1082 3 20.452461150655175 9.21433934706174 27.89974985484335 -1 0 0
392 1 20.381337779478425 6.723098554163762 31.7263132352808 -1 0 0
902 2 1.407346221637344 11.450127327830085 30.329908752127743 0 -1 0
675 1 4.354049415776944 11.579809068503705 32.20102662906527 0 0 0
685 1 7.216687870881913 9.91260169010593 30.156287792294425 0 0 0
1250 3 6.263382042311686 12.601425584340651 29.83454598848744 0 0 0
687 1 9.073322527647973 12.946393778987233 29.93742075991654 0 0 0
1249 3 11.217842933210644 11.574827901372771 27.93339763833013 0 0 0
597 1 12.545900155433943 10.917739205990664 31.166650565789173 0 0 0
692 1 14.4893695981265 10.6428608285827 28.620510645173223 0 0 0
1253 3 15.218328516667235 9.806400540823029 31.556716777232623 0 0 0
1187 3 16.905175102296003 12.897046263603597 27.72972685251947 -1 0 0
483 1 18.01736614017032 9.789880164405801 30.17767595412498 -1 0 0
484 1 21.461851405401568 10.058141496205165 30.957781454888963 -1 0 0
1188 3 19.561718350880273 12.693081282533834 30.957887960339466 -1 0 0
482 1 3.749582774817813 15.106043967281291 30.34053859440213 0 0 0
901 2 0.4860718586060326 17.8317912711168 30.17378125422316 0 -1 0
269 1 7.902568894910451 18.73088730849789 28.079398597555866 0 -1 0
372 1 6.55455630889284 15.002105927988858 27.8583679490918 0 0 0
930 2 6.594909655859535 17.21010823754994 30.7145603228294 0 0 0
696 1 10.835800912761702 16.58145474036197 29.654517653988147 0 0 0
1255 3 12.704024705700657 18.66594000443758 29.065342349535676 0 0 0
964 2 12.826632754919936 14.337507031288258 31.878520458598683 0 -1 0
680 1 14.936955164874696 14.544232267235628 28.605254699311665 0 0 0
677 1 15.418376560109941 16.75320108937803 32.218969249652964 0 0 0
994 2 17.590694456336138 18.266235037850027 28.72108932861166 0 0 0
504 1 18.68131664602997 14.947287120913025 29.354925573072357 -1 0 0
488 1 21.9583881993331 14.136539961980326 31.434963016267133 -1 0 0
407 1 21.48885193941224 17.57775340695161 32.304210525537 -1 -1 0
398 1 4.353576320506571 19.554696511327066 29.510644004199385 0 -1 0
589 1 3.9821202296211102 23.42418408636677 30.28608472041696 0 -1 0
1157 3 0.685818304629729 21.625088082043714 29.216645674520954 0 -1 0