LAMMPS (29 Aug 2024 - Development - 6d634dc-modified)
OMP_NUM_THREADS environment is not set. Defaulting to 1 thread. (src/comm.cpp:99)
  using 1 OpenMP thread(s) per MPI task
units	metal
atom_style atomic
dimension 3
newton off

boundary p p p

read_data data.CPBr
Reading data file ...
  triclinic box = (0 0 0) to (23.496 23.496 97) with tilt (0 0 0)
  1 by 1 by 1 MPI processor grid
  reading atoms ...
  1280 atoms
  read_data CPU = 0.033 seconds

variable        p_id world   1

variable        temperature equal 860.0
variable        temperature2 equal 860.0
variable        tempDamp equal 100.0 # approx 0.1 ps

variable        pressure equal 1.00
variable        pressureDamp equal 500.0

variable        seed world 1428

mass            1 79.904     # Br
mass            2 132.904999 # Cs
mass            3 207.199997 # Pb

# allegro pair style
pair_style	nequip
pair_coeff	* * ./best.pth Br Cs Pb

neighbor 1.0 bin
neigh_modify delay 5 every 1

#write_dump all custom output.dump id type x y z fx fy fz
#
variable freq equal 100
#variable dt equal 0.001

thermo          ${freq}
thermo          100
thermo_style    custom step temp pe ke etotal press lx ly lz xy xz yz
restart         ${freq} restart.0 restart.2
restart         100 restart.0 restart.2

#minimize 0.0 1.0e-3 100 10000

# NVT

dump            myDump1 all atom 500 out.0.lammpstrj
fix             1 all temp/csvr ${temperature} ${temperature} $(100.0*dt) ${seed}
fix             1 all temp/csvr 860 ${temperature} $(100.0*dt) ${seed}
fix             1 all temp/csvr 860 860 $(100.0*dt) ${seed}
fix             1 all temp/csvr 860 860 0.10000000000000000555 ${seed}
fix             1 all temp/csvr 860 860 0.10000000000000000555 1428
fix             2 all nve
timestep        0.003
velocity        all create ${temperature} ${seed} dist gaussian
velocity        all create 860 ${seed} dist gaussian
velocity        all create 860 1428 dist gaussian
run             1000

CITE-CITE-CITE-CITE-CITE-CITE-CITE-CITE-CITE-CITE-CITE-CITE-CITE

Your simulation uses code contributions which should be cited:

- Type Label Framework: https://doi.org/10.1021/acs.jpcb.3c08419

@Article{Gissinger24,
 author = {Jacob R. Gissinger, Ilia Nikiforov, Yaser Afshar, Brendon Waters, Moon-ki Choi, Daniel S. Karls, Alexander Stukowski, Wonpil Im, Hendrik Heinz, Axel Kohlmeyer, and Ellad B. Tadmor},
 title = {Type Label Framework for Bonded Force Fields in LAMMPS},
 journal = {J. Phys. Chem. B},
 year =    2024,
 volume =  128,
 number =  13,
 pages =   {3282--3297}
}

CITE-CITE-CITE-CITE-CITE-CITE-CITE-CITE-CITE-CITE-CITE-CITE-CITE

Neighbor list info ...
  update: every = 1 steps, delay = 5 steps, check = yes
  max neighbors/atom: 2000, page size: 100000
  master list distance cutoff = 9
  ghost atom cutoff = 9
  binsize = 4.5, bins = 6 6 22
  1 neighbor lists, perpetual/occasional/extra = 1 0 0
  (1) pair nequip, perpetual
      attributes: full, newton off
      pair build: full/bin/atomonly
      stencil: full/bin/3d
      bin: standard
Per MPI rank memory allocation (min/avg/max) = 3.23 | 3.23 | 3.23 Mbytes
   Step          Temp          PotEng         KinEng         TotEng         Press            Lx             Ly             Lz             Xy             Xz             Yz      
         0   860           -32240.825      142.1784      -32098.647      11422.834      23.496         23.496         97             0              0              0            
       100   950.04485     -32326.799      157.06495     -32169.735      10657.12       23.496         23.496         97             0              0              0            
       200   879.83556     -32352.38       145.45769     -32206.923      7104.7709      23.496         23.496         97             0              0              0            
       300   865.22714     -32363.212      143.04257     -32220.17       6747.7101      23.496         23.496         97             0              0              0            
       400   855.99527     -32357.283      141.51633     -32215.767      6813.9751      23.496         23.496         97             0              0              0            
       500   879.07268     -32368.235      145.33157     -32222.904      6753.77        23.496         23.496         97             0              0              0            
       600   855.00908     -32366.573      141.35329     -32225.22       6535.5639      23.496         23.496         97             0              0              0            
       700   863.15018     -32367.095      142.6992      -32224.396      6949.4412      23.496         23.496         97             0              0              0            
       800   864.64077     -32364.906      142.94563     -32221.96       7832.9386      23.496         23.496         97             0              0              0            
       900   880.3821      -32364.468      145.54805     -32218.92       8026.9949      23.496         23.496         97             0              0              0            
      1000   832.33531     -32365.057      137.60477     -32227.452      8383.8377      23.496         23.496         97             0              0              0            
Loop time of 98.2233 on 1 procs for 1000 steps with 1280 atoms

Performance: 2.639 ns/day, 9.095 hours/ns, 10.181 timesteps/s, 13.032 katom-step/s
99.0% CPU use with 1 MPI tasks x 1 OpenMP threads

MPI task timing breakdown:
Section |  min time  |  avg time  |  max time  |%varavg| %total
---------------------------------------------------------------
Pair    | 97.9       | 97.9       | 97.9       |   0.0 | 99.67
Neigh   | 0.27       | 0.27       | 0.27       |   0.0 |  0.27
Comm    | 0.012146   | 0.012146   | 0.012146   |   0.0 |  0.01
Output  | 0.018622   | 0.018622   | 0.018622   |   0.0 |  0.02
Modify  | 0.019215   | 0.019215   | 0.019215   |   0.0 |  0.02
Other   |            | 0.003184   |            |       |  0.00

Nlocal:           1280 ave        1280 max        1280 min
Histogram: 1 0 0 0 0 0 0 0 0 0
Nghost:           3620 ave        3620 max        3620 min
Histogram: 1 0 0 0 0 0 0 0 0 0
Neighs:              0 ave           0 max           0 min
Histogram: 1 0 0 0 0 0 0 0 0 0
FullNghs:        92594 ave       92594 max       92594 min
Histogram: 1 0 0 0 0 0 0 0 0 0

Total # of neighbors = 92594
Ave neighs/atom = 72.339062
Neighbor list builds = 87
Dangerous builds = 0
unfix           1
unfix           2
write_data      data.NVT
System init for write_data ...
undump          myDump1
reset_timestep  0

# NPT
dump            myDump3 all atom 10000 out.1.lammpstrj
fix             1 all temp/csvr ${temperature} ${temperature2} $(500.0*dt) ${seed}
fix             1 all temp/csvr 860 ${temperature2} $(500.0*dt) ${seed}
fix             1 all temp/csvr 860 860 $(500.0*dt) ${seed}
fix             1 all temp/csvr 860 860 1.5 ${seed}
fix             1 all temp/csvr 860 860 1.5 1428
fix             2 all nph z ${pressure} ${pressure} $(500.0*dt)
fix             2 all nph z 1 ${pressure} $(500.0*dt)
fix             2 all nph z 1 1 $(500.0*dt)
fix             2 all nph z 1 1 1.5
fix             3 all momentum 10000 linear 1 1 1
run             500000000
Per MPI rank memory allocation (min/avg/max) = 3.23 | 3.23 | 3.23 Mbytes
   Step          Temp          PotEng         KinEng         TotEng         Press            Lx             Ly             Lz             Xy             Xz             Yz      
         0   832.33531     -32365.057      137.60477     -32227.452      8384.1002      23.496         23.496         97             0              0              0            
       100   830.10798     -32369.482      137.23654     -32232.246      2130.6205      23.496         23.496         100.67596      0              0              0            
       200   812.64364     -32366.43       134.34927     -32232.081      1665.6823      23.496         23.496         102.32793      0              0              0            
       300   821.15458     -32366.159      135.75633     -32230.403      749.45888      23.496         23.496         102.20872      0              0              0            
       400   818.23025     -32362.325      135.27287     -32227.052      1511.545       23.496         23.496         102.29719      0              0              0            
       500   823.78494     -32361.996      136.1912      -32225.805      366.24488      23.496         23.496         103.52872      0              0              0            
       600   811.70648     -32359.526      134.19434     -32225.331      365.09378      23.496         23.496         103.84567      0              0              0            
       700   818.46976     -32359.025      135.31247     -32223.713      1107.7635      23.496         23.496         103.59137      0              0              0            
       800   816.9767      -32357.352      135.06563     -32222.286      2192.8077      23.496         23.496         103.54643      0              0              0            
       900   802.30781     -32352.435      132.64052     -32219.794      750.75366      23.496         23.496         103.90726      0              0              0            
      1000   811.53957     -32354.807      134.16674     -32220.641      941.26067      23.496         23.496         104.4152       0              0              0            
      1100   818.42272     -32357.561      135.30469     -32222.257      1629.7046      23.496         23.496         104.721        0              0              0            
      1200   788.4213      -32351.464      130.34475     -32221.12       1318.9322      23.496         23.496         105.66292      0              0              0            
      1300   810.47118     -32355.238      133.99012     -32221.248      479.8239       23.496         23.496         106.6302       0              0              0            
      1400   822.93285     -32354.554      136.05032     -32218.503      924.14249      23.496         23.496         106.89678      0              0              0            
      1500   821.80658     -32352.945      135.86413     -32217.081      200.04111      23.496         23.496         106.96838      0              0              0            
      1600   824.44133     -32353.695      136.29971     -32217.395      682.27397      23.496         23.496         107.15298      0              0              0            
      1700   848.97668     -32358.067      140.35599     -32217.711      1052.8116      23.496         23.496         107.6239       0              0              0            
      1800   786.30577     -32346.625      129.995       -32216.63       735.19702      23.496         23.496         107.56937      0              0              0            
      1900   823.43925     -32349.182      136.13404     -32213.048      317.54449      23.496         23.496         107.75658      0              0              0            
      2000   799.34019     -32339.425      132.1499      -32207.275      1278.6637      23.496         23.496         108.16764      0              0              0            
      2100   848.85807     -32347.634      140.33638     -32207.298      1275.6262      23.496         23.496         107.27041      0              0              0            
      2200   870.06918     -32346.477      143.84308     -32202.634      1559.118       23.496         23.496         106.95702      0              0              0            
      2300   862.84972     -32344.262      142.64953     -32201.613      1088.5533      23.496         23.496         107.12988      0              0              0            
      2400   891.1269      -32351.65       147.32442     -32204.326      622.0485       23.496         23.496         107.2451       0              0              0            
      2500   851.39576     -32344.939      140.75592     -32204.183      1531.9791      23.496         23.496         106.66115      0              0              0            
      2600   868.63306     -32346.86       143.60565     -32203.254      1477.3587      23.496         23.496         106.64122      0              0              0            
      2700   865.29861     -32343.645      143.05439     -32200.591      847.25547      23.496         23.496         107.35599      0              0              0            
      2800   883.55609     -32343.18       146.07279     -32197.107      1144.5525      23.496         23.496         107.59123      0              0              0            
      2900   895.51389     -32344.033      148.04969     -32195.983      1745.782       23.496         23.496         107.19124      0              0              0            
      3000   866.11906     -32340.498      143.19003     -32197.308      840.46071      23.496         23.496         107.37493      0              0              0            
      3100   903.64235     -32347.747      149.39352     -32198.354      465.46419      23.496         23.496         107.1853       0              0              0            
      3200   909.63835     -32347.696      150.3848      -32197.311      1286.2446      23.496         23.496         106.21635      0              0              0            
      3300   880.07622     -32343.58       145.49748     -32198.083      1874.768       23.496         23.496         106.11322      0              0              0            
      3400   869.5382      -32344.012      143.75529     -32200.257      497.09743      23.496         23.496         106.29545      0              0              0            
      3500   908.72374     -32350.392      150.23359     -32200.158      1532.9511      23.496         23.496         106.02137      0              0              0            
      3600   867.14143     -32340.671      143.35905     -32197.312      1179.0426      23.496         23.496         106.30547      0              0              0            
      3700   896.79006     -32344.579      148.26067     -32196.318      1165.1241      23.496         23.496         105.92021      0              0              0            
      3800   878.23894     -32344.94       145.19373     -32199.746      1513.1857      23.496         23.496         105.91704      0              0              0            
      3900   853.59975     -32343.879      141.12029     -32202.759      1443.5232      23.496         23.496         106.60286      0              0              0            
      4000   864.84145     -32346.019      142.97881     -32203.04       999.49614      23.496         23.496         106.16732      0              0              0            
      4100   871.17066     -32347.759      144.02518     -32203.734      2984.8515      23.496         23.496         105.11989      0              0              0            
      4200   888.50268     -32352.599      146.89057     -32205.708      2190.7052      23.496         23.496         105.37518      0              0              0            
      4300   856.34526     -32349.847      141.57419     -32208.272      567.79062      23.496         23.496         106.30622      0              0              0            
      4400   835.80697     -32348.991      138.17872     -32210.812      2100.569       23.496         23.496         105.68386      0              0              0            
      4500   834.30237     -32350.718      137.92998     -32212.788      188.05372      23.496         23.496         105.4439       0              0              0            
      4600   880.71322     -32358.146      145.60279     -32212.543      966.12065      23.496         23.496         105.21624      0              0              0            
      4700   871.77046     -32356.121      144.12434     -32211.997      1353.8187      23.496         23.496         105.01781      0              0              0            
      4800   865.85042     -32353.204      143.14562     -32210.058      134.70737      23.496         23.496         105.5657       0              0              0            
      4900   840.2755      -32346.248      138.91748     -32207.33       1265.636       23.496         23.496         105.97862      0              0              0            
      5000   903.55455     -32353.944      149.379       -32204.565      1686.2479      23.496         23.496         105.86953      0              0              0            
      5100   862.04489     -32346.817      142.51647     -32204.3        328.9303       23.496         23.496         106.2012       0              0              0            
      5200   857.99314     -32348.205      141.84662     -32206.358      1448.7543      23.496         23.496         106.05458      0              0              0            
      5300   850.35785     -32345.895      140.58433     -32205.31       1421.1736      23.496         23.496         105.58983      0              0              0            
      5400   858.2068      -32348.773      141.88195     -32206.891      1324.8937      23.496         23.496         105.85952      0              0              0            
      5500   849.39738     -32348.7        140.42554     -32208.274      1157.9528      23.496         23.496         106.13829      0              0              0            
      5600   845.66052     -32347.109      139.80775     -32207.301      1816.2858      23.496         23.496         106.08771      0              0              0            
      5700   864.92416     -32351.4        142.99248     -32208.408      1352.6776      23.496         23.496         105.765        0              0              0            
      5800   877.16386     -32355.815      145.016       -32210.799      227.59905      23.496         23.496         106.0513       0              0              0            
      5900   862.44565     -32355.744      142.58273     -32213.162      775.50404      23.496         23.496         105.56575      0              0              0            
      6000   856.68874     -32356.572      141.63097     -32214.941      1448.4814      23.496         23.496         105.67754      0              0              0            
      6100   864.26768     -32356.379      142.88395     -32213.495      1449.2749      23.496         23.496         105.92365      0              0              0            
      6200   865.65075     -32355.088      143.11261     -32211.975      1388.4339      23.496         23.496         105.51845      0              0              0            
      6300   840.98864     -32350.012      139.03538     -32210.977      1485.4729      23.496         23.496         105.01733      0              0              0            
      6400   845.51125     -32350.013      139.78307     -32210.23       841.04276      23.496         23.496         105.38412      0              0              0            
      6500   831.52923     -32347.269      137.47151     -32209.798      1090.7154      23.496         23.496         105.27999      0              0              0            
      6600   876.51053     -32352.113      144.90799     -32207.205      430.00935      23.496         23.496         105.14614      0              0              0            
      6700   859.55481     -32350.759      142.1048      -32208.654      1400.9611      23.496         23.496         105.14717      0              0              0            
      6800   882.98858     -32355.964      145.97896     -32209.985      736.46764      23.496         23.496         104.97391      0              0              0            
      6900   868.94634     -32355.369      143.65745     -32211.711      1384.3337      23.496         23.496         104.54566      0              0              0            
      7000   865.61623     -32354.621      143.1069      -32211.514      1164.4873      23.496         23.496         104.70425      0              0              0            
      7100   850.34042     -32352.034      140.58145     -32211.453      806.99693      23.496         23.496         105.29056      0              0              0            
      7200   864.54262     -32350.156      142.92941     -32207.226      1117.8162      23.496         23.496         105.31592      0              0              0            
      7300   879.7529      -32353.8        145.44403     -32208.356      2543.0538      23.496         23.496         104.95609      0              0              0            
      7400   859.56998     -32350.834      142.10731     -32208.727      2117.6099      23.496         23.496         104.92473      0              0              0            
      7500   881.72516     -32354.28       145.77009     -32208.51       1145.7715      23.496         23.496         104.82497      0              0              0            
      7600   875.15099     -32356.591      144.68322     -32211.908      2163.6413      23.496         23.496         104.22317      0              0              0            
      7700   874.02477     -32357.341      144.49703     -32212.844      1725.8902      23.496         23.496         104.45011      0              0              0            
      7800   813.52323     -32352.331      134.49469     -32217.836      576.12116      23.496         23.496         105.07942      0              0              0            
      7900   840.00663     -32355.577      138.87303     -32216.704      528.74777      23.496         23.496         105.09284      0              0              0            
      8000   844.59851     -32358.425      139.63217     -32218.793      1089.7587      23.496         23.496         105.23022      0              0              0            
      8100   873.25569     -32358.355      144.36988     -32213.986      1607.35        23.496         23.496         104.93008      0              0              0            
      8200   839.46213     -32352.764      138.78301     -32213.981      1305.2743      23.496         23.496         105.61188      0              0              0            
      8300   870.99185     -32359.305      143.99562     -32215.309      1305.3668      23.496         23.496         105.4483       0              0              0            
      8400   866.15147     -32355.843      143.19539     -32212.647      1303.1537      23.496         23.496         105.27875      0              0              0            
      8500   861.19646     -32354.33       142.37621     -32211.954      503.80878      23.496         23.496         105.71995      0              0              0            
      8600   837.04793     -32349.144      138.38388     -32210.76       637.0301       23.496         23.496         105.81137      0              0              0            
      8700   870.70563     -32356.517      143.9483      -32212.569      743.02966      23.496         23.496         104.7524       0              0              0            
      8800   864.93984     -32355.33       142.99508     -32212.335      1821.1622      23.496         23.496         104.51042      0              0              0            
      8900   857.6639      -32356.924      141.79219     -32215.132      886.08725      23.496         23.496         105.40913      0              0              0            
      9000   845.84162     -32356.617      139.83769     -32216.78       472.74387      23.496         23.496         104.70705      0              0              0            
      9100   859.05256     -32357.938      142.02177     -32215.917      2286.263       23.496         23.496         103.94484      0              0              0            
      9200   817.63589     -32353.756      135.17461     -32218.581      1506.6083      23.496         23.496         104.12478      0              0              0            
      9300   847.79112     -32358.205      140.15999     -32218.045      1028.2507      23.496         23.496         104.00097      0              0              0            
      9400   860.17769     -32360.026      142.20778     -32217.818      1493.5976      23.496         23.496         103.90772      0              0              0            
      9500   844.36054     -32356.851      139.59283     -32217.258      699.06915      23.496         23.496         104.30693      0              0              0            
      9600   859.97193     -32357.5        142.17376     -32215.326      1363.6563      23.496         23.496         103.97673      0              0              0            
      9700   854.31986     -32357.794      141.23934     -32216.555      3066.3534      23.496         23.496         103.32527      0              0              0            
      9800   855.21942     -32357.489      141.38806     -32216.101      1214.7066      23.496         23.496         103.20109      0              0              0            
      9900   873.12108     -32361.282      144.34763     -32216.935      2429.4452      23.496         23.496         103.21511      0              0              0            
     10000   854.52489     -32357.778      141.27324     -32216.505      2212.6933      23.496         23.496         103.85145      0              0              0            
     10100   847.23867     -32359.915      140.06865     -32219.846      807.96821      23.496         23.496         103.92058      0              0              0            
     10200   862.25732     -32358.952      142.55159     -32216.401      2445.3105      23.496         23.496         103.25584      0              0              0            
     10300   850.02585     -32358.741      140.52944     -32218.212      1312.0763      23.496         23.496         103.56195      0              0              0            
     10400   848.05275     -32356.927      140.20324     -32216.724      689.93067      23.496         23.496         103.76969      0              0              0            
     10500   842.02755     -32356.492      139.20713     -32217.285      1784.1248      23.496         23.496         103.64314      0              0              0            
     10600   869.58071     -32360.253      143.76232     -32216.491      1686.6627      23.496         23.496         103.3872       0              0              0            
     10700   839.16774     -32354.631      138.73434     -32215.896      1143.8053      23.496         23.496         103.52178      0              0              0            
     10800   850.30067     -32356.767      140.57487     -32216.192      825.41013      23.496         23.496         103.98775      0              0              0            
     10900   863.14213     -32358.394      142.69787     -32215.696      855.89735      23.496         23.496         104.18525      0              0              0            
     11000   868.6906      -32360.351      143.61517     -32216.736      1411.3351      23.496         23.496         104.65447      0              0              0            
     11100   848.42333     -32358.936      140.26451     -32218.671      223.28647      23.496         23.496         104.60917      0              0              0            
     11200   847.38105     -32358.763      140.09219     -32218.67       1504.3721      23.496         23.496         103.78773      0              0              0            
     11300   855.64031     -32361.142      141.45764     -32219.684      1803.0658      23.496         23.496         103.73854      0              0              0            
     11400   855.57225     -32362.091      141.44639     -32220.644      477.60257      23.496         23.496         104.35237      0              0              0            
     11500   882.48194     -32365.18       145.8952      -32219.285      1240.9541      23.496         23.496         104.4907       0              0              0            
     11600   873.69347     -32362.331      144.44226     -32217.889      612.86253      23.496         23.496         104.60755      0              0              0            
     11700   846.74504     -32357.766      139.98704     -32217.779      593.4617       23.496         23.496         104.19349      0              0              0            
     11800   837.83082     -32358.466      138.51331     -32219.952      1639.7887      23.496         23.496         103.64262      0              0              0            
     11900   837.26042     -32360.362      138.41901     -32221.943      1878.0868      23.496         23.496         103.58347      0              0              0            
     12000   854.91551     -32364.519      141.33782     -32223.181      995.02866      23.496         23.496         103.9414       0              0              0            
     12100   871.75413     -32364.871      144.12164     -32220.749      1054.8175      23.496         23.496         103.38834      0              0              0            
     12200   883.02332     -32365.678      145.98471     -32219.693      2181.8045      23.496         23.496         103.32079      0              0              0            
     12300   864.77619     -32363.741      142.96802     -32220.773      1631.3356      23.496         23.496         104.16693      0              0              0            
     12400   867.96466     -32363.906      143.49515     -32220.411      929.54902      23.496         23.496         104.54108      0              0              0            
     12500   875.04589     -32364.14       144.66585     -32219.474      2450.3719      23.496         23.496         104.29584      0              0              0            
     12600   869.91749     -32360.684      143.818       -32216.866      1347.1119      23.496         23.496         104.67002      0              0              0            
     12700   859.47303     -32362.361      142.09128     -32220.269      1810.7532      23.496         23.496         104.4494       0              0              0            
     12800   861.27145     -32360.158      142.38861     -32217.769      1934.9216      23.496         23.496         104.31212      0              0              0            
     12900   848.0058      -32358.907      140.19548     -32218.712      1325.1918      23.496         23.496         104.6389       0              0              0            
     13000   854.56056     -32359.164      141.27913     -32217.885      721.84582      23.496         23.496         104.19016      0              0              0            
     13100   835.39044     -32358.957      138.10986     -32220.848      1929.5867      23.496         23.496         103.05124      0              0              0            
     13200   847.72574     -32361.033      140.14918     -32220.884      1704.4047      23.496         23.496         103.52702      0              0              0            
     13300   842.32675     -32363.033      139.2566      -32223.776      706.6403       23.496         23.496         103.93433      0              0              0            
     13400   837.97419     -32361.728      138.53702     -32223.19       1789.0991      23.496         23.496         103.67208      0              0              0            
     13500   869.36335     -32365.928      143.72639     -32222.201      616.08286      23.496         23.496         103.86399      0              0              0            
     13600   854.04401     -32361.653      141.19374     -32220.46       723.28105      23.496         23.496         103.92685      0              0              0            
     13700   844.83974     -32363.242      139.67205     -32223.57       2030.55        23.496         23.496         103.83798      0              0              0            
     13800   868.39245     -32367.856      143.56587     -32224.291      1340.3859      23.496         23.496         103.40515      0              0              0            
     13900   854.15737     -32364.677      141.21248     -32223.464      1513.6432      23.496         23.496         103.65293      0              0              0            
     14000   832.10674     -32360.641      137.56699     -32223.074      2349.3063      23.496         23.496         104.10712      0              0              0            
     14100   854.34025     -32362.804      141.24271     -32221.562      1012.7411      23.496         23.496         104.8532       0              0              0            
     14200   833.15453     -32360.675      137.74021     -32222.935      2159.1439      23.496         23.496         103.87686      0              0              0            
     14300   831.61569     -32360.36       137.4858      -32222.875      1911.3907      23.496         23.496         103.56905      0              0              0            
     14400   852.67533     -32359.404      140.96746     -32218.436      718.15971      23.496         23.496         104.47992      0              0              0            
     14500   840.01648     -32358.486      138.87465     -32219.611      891.43441      23.496         23.496         104.53911      0              0              0            
     14600   847.67557     -32361.618      140.14088     -32221.477      798.95985      23.496         23.496         104.00394      0              0              0            
     14700   875.69289     -32364.072      144.77281     -32219.3        2167.7677      23.496         23.496         104.07587      0              0              0            
     14800   842.00695     -32358.039      139.20373     -32218.836      1945.4465      23.496         23.496         104.20077      0              0              0            
     14900   854.6699      -32361.459      141.29721     -32220.162      732.86475      23.496         23.496         104.21025      0              0              0            
     15000   853.18743     -32362.01       141.05212     -32220.958      1695.0729      23.496         23.496         103.68377      0              0              0            
     15100   856.15115     -32364.291      141.5421      -32222.749      469.59476      23.496         23.496         103.79871      0              0              0            
     15200   849.93102     -32361.69       140.51376     -32221.176      1497.6223      23.496         23.496         104.10314      0              0              0            
     15300   838.26349     -32361.619      138.58484     -32223.034      483.41171      23.496         23.496         104.52097      0              0              0            
     15400   823.61771     -32358.169      136.16355     -32222.006      2100.5821      23.496         23.496         103.76539      0              0              0            
     15500   863.08076     -32366.116      142.68773     -32223.429      1727.7002      23.496         23.496         103.17043      0              0              0            
     15600   871.01726     -32366.615      143.99982     -32222.616      1381.9482      23.496         23.496         103.43107      0              0              0            
     15700   818.62023     -32360.528      135.33735     -32225.19       1743.743       23.496         23.496         103.13598      0              0              0            
     15800   852.87204     -32364.712      140.99998     -32223.712      1433.6644      23.496         23.496         103.01183      0              0              0            
     15900   866.31365     -32365.982      143.2222      -32222.76       1820.7639      23.496         23.496         102.85422      0              0              0            
     16000   863.02821     -32367.12       142.67904     -32224.441      1066.7037      23.496         23.496         103.09148      0              0              0            
     16100   833.18519     -32363.035      137.74528     -32225.289      1673.5223      23.496         23.496         102.89373      0              0              0            
     16200   866.59051     -32369.106      143.26797     -32225.838      1074.2511      23.496         23.496         102.73011      0              0              0            
     16300   846.42861     -32365.043      139.93473     -32225.108      888.01764      23.496         23.496         103.1502       0              0              0            
     16400   883.54436     -32368.337      146.07084     -32222.266      1432.1792      23.496         23.496         103.14492      0              0              0            
     16500   858.60763     -32361.758      141.94821     -32219.809      2343.94        23.496         23.496         102.78498      0              0              0            
     16600   869.71935     -32362.033      143.78524     -32218.248      2203.3035      23.496         23.496         102.64156      0              0              0            
     16700   856.77062     -32360.227      141.64451     -32218.583      2376.7974      23.496         23.496         102.31377      0              0              0            
     16800   877.22521     -32363.864      145.02614     -32218.838      1403.7817      23.496         23.496         103.02146      0              0              0            
     16900   845.22781     -32360.997      139.73621     -32221.261      1191.9029      23.496         23.496         103.33119      0              0              0            
     17000   878.65033     -32367.849      145.26175     -32222.587      1564.5629      23.496         23.496         102.44685      0              0              0            
     17100   893.42957     -32366.555      147.70511     -32218.85       1620.4253      23.496         23.496         102.14857      0              0              0            
     17200   888.39695     -32365.789      146.87309     -32218.916      2256.5431      23.496         23.496         102.56269      0              0              0            
     17300   900.33061     -32368.052      148.84601     -32219.206      2329.2054      23.496         23.496         102.93955      0              0              0            
     17400   860.0782      -32362.727      142.19133     -32220.536      872.47488      23.496         23.496         103.31449      0              0              0            
     17500   874.47774     -32365.632      144.57192     -32221.06       2717.9191      23.496         23.496         102.63888      0              0              0            
     17600   878.552       -32369.426      145.24549     -32224.18       1380.8712      23.496         23.496         102.42861      0              0              0            
     17700   861.80173     -32363.821      142.47627     -32221.344      456.01554      23.496         23.496         103.1281       0              0              0            
     17800   883.76772     -32369.614      146.10777     -32223.507      1785.6374      23.496         23.496         102.99304      0              0              0            
     17900   858.32934     -32366.235      141.9022      -32224.333      1559.4312      23.496         23.496         102.88416      0              0              0            
     18000   848.15667     -32365.128      140.22042     -32224.908      1169.8727      23.496         23.496         102.91282      0              0              0            
     18100   871.26644     -32368.016      144.04101     -32223.975      1971.0191      23.496         23.496         102.98319      0              0              0            
     18200   849.24516     -32367.194      140.40037     -32226.794      721.81789      23.496         23.496         103.23505      0              0              0            
     18300   838.59945     -32368.571      138.64038     -32229.931      508.09321      23.496         23.496         103.3135       0              0              0            
     18400   859.80993     -32371.138      142.14698     -32228.991      899.74686      23.496         23.496         102.8653       0              0              0            
     18500   863.25685     -32371.285      142.71684     -32228.568      905.62758      23.496         23.496         102.12745      0              0              0            
     18600   849.73462     -32369.125      140.48129     -32228.644      1249.0202      23.496         23.496         101.83861      0              0              0            
     18700   867.24274     -32370.858      143.3758      -32227.482      1796.4735      23.496         23.496         101.71536      0              0              0            
     18800   901.49031     -32374.944      149.03774     -32225.906      2630.9235      23.496         23.496         101.71521      0              0              0            
     18900   848.18935     -32367.466      140.22582     -32227.24       633.21981      23.496         23.496         102.12695      0              0              0            
     19000   860.77183     -32367.914      142.306       -32225.608      1299.7981      23.496         23.496         101.98397      0              0              0            
     19100   880.61907     -32373.111      145.58722     -32227.524      2350.1585      23.496         23.496         101.70794      0              0              0            
     19200   854.0503      -32367.752      141.19478     -32226.557      3147.889       23.496         23.496         101.92681      0              0              0            
     19300   859.84043     -32368.898      142.15202     -32226.746      1276.6832      23.496         23.496         102.54486      0              0              0            
     19400   862.00341     -32370.294      142.50961     -32227.785      1669.1265      23.496         23.496         102.74499      0              0              0            
     19500   845.91765     -32369.413      139.85026     -32229.562      1976.4331      23.496         23.496         103.33948      0              0              0            
     19600   832.02073     -32365.807      137.55277     -32228.254      1930.8884      23.496         23.496         103.1046       0              0              0            
     19700   821.43811     -32364.234      135.80321     -32228.431      2035.4291      23.496         23.496         102.45233      0              0              0            
     19800   839.14195     -32366.634      138.73007     -32227.904      2529.302       23.496         23.496         102.64249      0              0              0            
     19900   833.4773      -32365.816      137.79357     -32228.023      2075.1323      23.496         23.496         103.34485      0              0              0            
     20000   827.69363     -32363.306      136.83739     -32226.468      2156.052       23.496         23.496         103.97431      0              0              0            
     20100   856.3991      -32367.785      141.58309     -32226.201      917.78115      23.496         23.496         103.7028       0              0              0            
     20200   870.6349      -32369.822      143.9366      -32225.886      2708.4368      23.496         23.496         102.65856      0              0              0            
     20300   840.21047     -32364.208      138.90672     -32225.301      539.29723      23.496         23.496         103.31978      0              0              0            
     20400   848.00959     -32367.949      140.1961      -32227.753      735.09994      23.496         23.496         103.52679      0              0              0            
     20500   833.13946     -32364.39       137.73772     -32226.653      2282.9441      23.496         23.496         103.29043      0              0              0            
     20600   866.34865     -32369.243      143.22799     -32226.015      1254.6041      23.496         23.496         102.93468      0              0              0            
     20700   845.18002     -32366.024      139.72831     -32226.296      1780.8708      23.496         23.496         102.64714      0              0              0            
     20800   823.55022     -32363.75       136.15239     -32227.598      2268.8458      23.496         23.496         102.73252      0              0              0            
     20900   870.0222      -32367.199      143.83531     -32223.364      783.9976       23.496         23.496         102.37086      0              0              0            
     21000   884.65729     -32367.132      146.25484     -32220.877      3000.0551      23.496         23.496         101.98807      0              0              0            
     21100   859.50175     -32363.718      142.09603     -32221.622      408.69781      23.496         23.496         103.33281      0              0              0            
     21200   859.55938     -32365.861      142.10556     -32223.756      1683.68        23.496         23.496         103.35689      0              0              0            
     21300   860.01447     -32367.328      142.1808      -32225.147      1854.544       23.496         23.496         102.24962      0              0              0            
     21400   880.99178     -32368.095      145.64884     -32222.446      1414.5311      23.496         23.496         102.04955      0              0              0            
     21500   877.48399     -32368.861      145.06892     -32223.793      1873.2899      23.496         23.496         102.12563      0              0              0            
     21600   849.94861     -32363.772      140.51667     -32223.255      2007.6594      23.496         23.496         102.6123       0              0              0            
     21700   840.44433     -32361.042      138.94539     -32222.096      1422.0672      23.496         23.496         102.86074      0              0              0            
     21800   856.98567     -32365.828      141.68006     -32224.147      1423.2279      23.496         23.496         102.50967      0              0              0            
     21900   867.67111     -32370.189      143.44662     -32226.742      2009.1505      23.496         23.496         102.25183      0              0              0            
     22000   853.7617      -32370.247      141.14707     -32229.1        1164.2453      23.496         23.496         102.52084      0              0              0            
     22100   852.28477     -32369.993      140.90289     -32229.09       1320.2444      23.496         23.496         102.54502      0              0              0            
     22200   857.83932     -32368.359      141.82119     -32226.538      2153.7655      23.496         23.496         102.17806      0              0              0            
     22300   857.81537     -32366.114      141.81723     -32224.297      2430.672       23.496         23.496         102.02485      0              0              0            
     22400   848.99943     -32365.03       140.35975     -32224.67       916.79328      23.496         23.496         102.68939      0              0              0            
     22500   830.55635     -32364.099      137.31067     -32226.788      1002.954       23.496         23.496         102.82325      0              0              0            
     22600   837.51794     -32370.077      138.46159     -32231.615      2750.5272      23.496         23.496         101.95801      0              0              0            
     22700   847.74075     -32370.52       140.15166     -32230.369      1190.3863      23.496         23.496         102.41867      0              0              0            
     22800   834.12418     -32365.489      137.90052     -32227.589      718.46789      23.496         23.496         103.29633      0              0              0            
     22900   860.72585     -32369.969      142.2984      -32227.671      2226.6761      23.496         23.496         102.57307      0              0              0            
     23000   833.10339     -32365.752      137.73176     -32228.02       1976.87        23.496         23.496         102.49499      0              0              0            
     23100   839.44131     -32365.168      138.77956     -32226.388      1096.0332      23.496         23.496         103.47555      0              0              0            
     23200   847.07314     -32364.122      140.04129     -32224.081      876.74207      23.496         23.496         103.58257      0              0              0            
     23300   838.51287     -32360.376      138.62607     -32221.75       1983.6715      23.496         23.496         102.98159      0              0              0            
     23400   883.07783     -32366.003      145.99372     -32220.009      2085.2015      23.496         23.496         102.35802      0              0              0            
     23500   854.31932     -32361.312      141.23925     -32220.073      2248.0385      23.496         23.496         103.01519      0              0              0            
     23600   879.63796     -32361.83       145.42502     -32216.405      679.9754       23.496         23.496         104.03474      0              0              0            
     23700   880.19508     -32360.394      145.51713     -32214.876      1783.7342      23.496         23.496         103.10798      0              0              0            
     23800   883.56978     -32360.784      146.07505     -32214.708      1814.6613      23.496         23.496         102.87504      0              0              0            
     23900   874.57394     -32358.803      144.58782     -32214.215      1229.2209      23.496         23.496         103.48578      0              0              0            
     24000   849.05344     -32357.217      140.36868     -32216.848      1874.0799      23.496         23.496         103.67938      0              0              0            
     24100   878.37078     -32359.134      145.21553     -32213.919      2217.4343      23.496         23.496         103.64902      0              0              0            
     24200   861.13819     -32359.246      142.36657     -32216.879      2241.5506      23.496         23.496         103.01866      0              0              0            
     24300   875.71871     -32360.813      144.77708     -32216.036      1625.5296      23.496         23.496         103.22736      0              0              0            
     24400   858.05591     -32361.397      141.857       -32219.54       1786.2992      23.496         23.496         102.9979       0              0              0            
     24500   884.32871     -32366.422      146.20052     -32220.222      1625.5736      23.496         23.496         103.44089      0              0              0            
     24600   857.07072     -32363.863      141.69412     -32222.169      911.19938      23.496         23.496         104.0953       0              0              0            
     24700   848.11522     -32362.126      140.21357     -32221.913      1812.517       23.496         23.496         103.4388       0              0              0            
     24800   876.24586     -32367.272      144.86423     -32222.408      2035.448       23.496         23.496         102.91083      0              0              0            
     24900   854.41255     -32364.004      141.25467     -32222.749      1440.8969      23.496         23.496         103.37368      0              0              0            
     25000   856.00063     -32364.623      141.51721     -32223.106      1467.7909      23.496         23.496         103.16781      0              0              0            
     25100   850.63351     -32366.6        140.6299      -32225.971      3216.5523      23.496         23.496         102.3056       0              0              0            
     25200   859.34644     -32367.424      142.07035     -32225.354      1314.8456      23.496         23.496         102.56367      0              0              0            
     25300   865.15236     -32367.899      143.03021     -32224.869      1691.4937      23.496         23.496         102.95647      0              0              0            
     25400   866.70219     -32366.171      143.28643     -32222.884      1636.353       23.496         23.496         103.13225      0              0              0            
     25500   856.66508     -32362.706      141.62706     -32221.079      2670.8878      23.496         23.496         102.71112      0              0              0            
     25600   836.84606     -32357.528      138.35051     -32219.177      1578.6856      23.496         23.496         102.7487       0              0              0            
     25700   852.55237     -32361.866      140.94713     -32220.919      489.12663      23.496         23.496         102.73377      0              0              0            
     25800   853.387       -32362.742      141.08512     -32221.657      2935.0929      23.496         23.496         101.91922      0              0              0            
     25900   879.22171     -32366.782      145.35621     -32221.426      1543.9633      23.496         23.496         102.33287      0              0              0            
     26000   857.3026      -32364.081      141.73246     -32222.349      2085.8017      23.496         23.496         102.76263      0              0              0            
     26100   870.4324      -32367.144      143.90313     -32223.24       2103.8633      23.496         23.496         102.5701       0              0              0            
     26200   881.19874     -32369.584      145.68306     -32223.901      1498.5955      23.496         23.496         102.13799      0              0              0            
     26300   882.80964     -32369.601      145.94938     -32223.652      1747.5904      23.496         23.496         102.06868      0              0              0            
     26400   851.69013     -32366.17       140.80459     -32225.365      2686.96        23.496         23.496         102.48166      0              0              0            
     26500   838.87501     -32364.389      138.68594     -32225.703      805.4618       23.496         23.496         103.37647      0              0              0            
     26600   862.38406     -32366.06       142.57255     -32223.487      1975.1963      23.496         23.496         102.95538      0              0              0            
     26700   860.34992     -32367.762      142.23625     -32225.525      1975.9289      23.496         23.496         102.79957      0              0              0            
     26800   856.90487     -32365.472      141.6667      -32223.805      1140.4299      23.496         23.496         103.59708      0              0              0            
     26900   843.09768     -32360.648      139.38405     -32221.264      890.13346      23.496         23.496         103.99806      0              0              0            
     27000   871.1945      -32365.648      144.02912     -32221.619      609.06145      23.496         23.496         103.38466      0              0              0            
     27100   841.27812     -32363.347      139.08323     -32224.264      2304.0603      23.496         23.496         102.52735      0              0              0            
     27200   881.87377     -32369.325      145.79466     -32223.53       2078.4004      23.496         23.496         102.20354      0              0              0            
     27300   848.70041     -32364.658      140.31031     -32224.348      1501.6451      23.496         23.496         102.58437      0              0              0            
     27400   837.74587     -32364.847      138.49927     -32226.348      981.20633      23.496         23.496         102.66152      0              0              0            
     27500   851.24851     -32366.832      140.73157     -32226.1        1819.7121      23.496         23.496         101.85372      0              0              0            
     27600   869.02372     -32369.448      143.67024     -32225.778      1470.4758      23.496         23.496         101.91672      0              0              0            
     27700   850.72886     -32367.056      140.64567     -32226.41       1727.6438      23.496         23.496         102.00248      0              0              0            
     27800   867.76584     -32369.198      143.46228     -32225.736      1983.2147      23.496         23.496         101.841        0              0              0            
     27900   867.34179     -32367.22       143.39218     -32223.828      2700.239       23.496         23.496         101.84463      0              0              0            
     28000   859.35685     -32365.195      142.07208     -32223.123      1741.2692      23.496         23.496         102.55976      0              0              0            
     28100   863.54052     -32365.1        142.76374     -32222.336      2226.3259      23.496         23.496         102.0044       0              0              0            
     28200   910.4256      -32370.516      150.51495     -32220.001      749.62916      23.496         23.496         102.0649       0              0              0            
     28300   905.37387     -32367.538      149.67978     -32217.858      655.84175      23.496         23.496         102.31041      0              0              0            
     28400   890.81028     -32368.133      147.27207     -32220.861      1011.6948      23.496         23.496         102.24232      0              0              0            
     28500   875.47071     -32367.704      144.73608     -32222.968      2399.0676      23.496         23.496         102.02715      0              0              0            
     28600   883.56438     -32370.374      146.07415     -32224.3        1886.3958      23.496         23.496         101.95014      0              0              0            
     28700   834.96835     -32362.162      138.04008     -32224.122      2098.4738      23.496         23.496         102.24927      0              0              0            
     28800   845.09511     -32363.07       139.71427     -32223.355      1647.8113      23.496         23.496         102.53852      0              0              0            
     28900   850.60483     -32365.173      140.62516     -32224.547      2046.4358      23.496         23.496         102.77471      0              0              0            
     29000   826.67078     -32361.8        136.66829     -32225.132      1061.5887      23.496         23.496         103.21296      0              0              0            
     29100   883.26186     -32365.245      146.02414     -32219.221      2200.6319      23.496         23.496         102.77189      0              0              0            
     29200   859.33846     -32361.548      142.06904     -32219.479      1279.4819      23.496         23.496         103.01916      0              0              0            
     29300   855.54926     -32361.79       141.44259     -32220.347      2028.9123      23.496         23.496         103.03393      0              0              0            
     29400   879.1643      -32367.999      145.34672     -32222.653      1860.285       23.496         23.496         103.0008       0              0              0            
     29500   850.75314     -32362.945      140.64968     -32222.295      608.49169      23.496         23.496         103.76165      0              0              0            
     29600   863.63608     -32364.773      142.77953     -32221.993      1359.4144      23.496         23.496         103.7405       0              0              0            
     29700   852.27039     -32361.939      140.90052     -32221.039      1547.2683      23.496         23.496         103.38578      0              0              0            
     29800   886.86372     -32365.706      146.61961     -32219.086      1432.6528      23.496         23.496         103.22221      0              0              0            
     29900   861.50533     -32365.997      142.42727     -32223.569      1655.9655      23.496         23.496         103.65344      0              0              0            
     30000   853.11208     -32364.715      141.03967     -32223.676      555.59488      23.496         23.496         104.25843      0              0              0            
     30100   869.40104     -32366.5        143.73262     -32222.768      1648.0932      23.496         23.496         103.39521      0              0              0            
     30200   866.72113     -32367.321      143.28957     -32224.032      2338.9044      23.496         23.496         103.40453      0              0              0            
     30300   850.72181     -32365.567      140.6445      -32224.923      1185.1211      23.496         23.496         103.24836      0              0              0            
     30400   877.105       -32371.184      145.00627     -32226.178      2041.2857      23.496         23.496         102.79157      0              0              0            
     30500   832.89645     -32365.316      137.69754     -32227.619      1365.5981      23.496         23.496         103.07676      0              0              0            
     30600   859.25366     -32369.476      142.05502     -32227.421      947.73339      23.496         23.496         103.83539      0              0              0            
     30700   838.2512      -32365.38       138.58281     -32226.797      1476.395       23.496         23.496         103.47714      0              0              0            
     30800   850.09453     -32366.541      140.5408      -32226.001      1869.2972      23.496         23.496         102.73135      0              0              0            
     30900   889.42705     -32370.349      147.04339     -32223.305      704.72332      23.496         23.496         103.14849      0              0              0            
     31000   852.22377     -32361.497      140.89281     -32220.604      2441.1261      23.496         23.496         102.98943      0              0              0            
     31100   854.71218     -32363.746      141.3042      -32222.442      1739.1974      23.496         23.496         103.29635      0              0              0            
     31200   874.84115     -32365.024      144.632       -32220.392      3135.1582      23.496         23.496         102.52         0              0              0            
     31300   872.79383     -32365.422      144.29353     -32221.128      2012.2837      23.496         23.496         102.78917      0              0              0            
     31400   873.5692      -32365.582      144.42171     -32221.16       1029.6158      23.496         23.496         103.48959      0              0              0            
     31500   885.79342     -32366.505      146.44267     -32220.062      1249.07        23.496         23.496         103.15882      0              0              0            
     31600   879.14416     -32366.717      145.34339     -32221.374      2801.0211      23.496         23.496         103.01206      0              0              0            
     31700   845.94689     -32361.988      139.85509     -32222.133      1873.5639      23.496         23.496         103.95494      0              0              0            
     31800   858.24859     -32363.925      141.88885     -32222.036      1348.4221      23.496         23.496         104.42673      0              0              0            
     31900   847.75232     -32361.914      140.15357     -32221.76       1763.5148      23.496         23.496         103.80497      0              0              0            
     32000   884.17873     -32368.096      146.17572     -32221.921      1701.8524      23.496         23.496         102.86792      0              0              0            
     32100   907.86909     -32367.545      150.0923      -32217.453      2028.8115      23.496         23.496         103.17373      0              0              0            
     32200   883.2368      -32363.798      146.02        -32217.778      1588.4734      23.496         23.496         103.58096      0              0              0            
     32300   866.72692     -32360.829      143.29052     -32217.539      320.31934      23.496         23.496         103.5427       0              0              0            
     32400   860.34588     -32365.366      142.23559     -32223.13       1883.7995      23.496         23.496         102.6433       0              0              0            
     32500   903.95664     -32369.773      149.44548     -32220.328      1979.7151      23.496         23.496         102.57374      0              0              0            
     32600   870.9832      -32363.686      143.99419     -32219.691      1522.8965      23.496         23.496         103.18186      0              0              0            
     32700   872.23489     -32363.912      144.20112     -32219.711      2593.8241      23.496         23.496         102.65701      0              0              0            
     32800   874.88617     -32363.626      144.63944     -32218.987      2024.0032      23.496         23.496         103.31508      0              0              0            
     32900   854.43983     -32362.943      141.25918     -32221.684      294.4497       23.496         23.496         103.79244      0              0              0            
     33000   853.15772     -32363.732      141.04721     -32222.685      2421.64        23.496         23.496         102.70791      0              0              0            
     33100   859.62768     -32367.501      142.11685     -32225.385      776.30884      23.496         23.496         103.49786      0              0              0            
     33200   844.77128     -32369.306      139.66073     -32229.645      2488.8546      23.496         23.496         103.57514      0              0              0            
     33300   820.30713     -32368.567      135.61623     -32232.951      1650.7595      23.496         23.496         103.40766      0              0              0            
     33400   847.17714     -32371.917      140.05848     -32231.858      802.68911      23.496         23.496         103.52542      0              0              0            
     33500   836.45356     -32372.008      138.28562     -32233.723      2282.0067      23.496         23.496         103.05834      0              0              0            
     33600   852.74506     -32371.664      140.97899     -32230.685      1805.8498      23.496         23.496         103.33342      0              0              0            
     33700   805.86971     -32364.947      133.22938     -32231.717      1341.1429      23.496         23.496         104.07513      0              0              0            
     33800   838.90416     -32369.293      138.69076     -32230.602      1324.9607      23.496         23.496         103.46943      0              0              0            
     33900   844.10024     -32372.161      139.5498      -32232.611      2101.2141      23.496         23.496         102.86439      0              0              0            
     34000   833.61762     -32366.673      137.81677     -32228.856      2475.3277      23.496         23.496         102.87993      0              0              0            
     34100   845.60817     -32367.664      139.79909     -32227.865      626.81584      23.496         23.496         103.96908      0              0              0            
     34200   839.50845     -32367.724      138.79066     -32228.933      1821.3066      23.496         23.496         103.78542      0              0              0            
     34300   852.89503     -32371.328      141.00378     -32230.324      1409.7041      23.496         23.496         102.98406      0              0              0            
     34400   867.1376      -32373.22       143.35842     -32229.862      1935.231       23.496         23.496         103.19591      0              0              0            
     34500   826.37163     -32370.821      136.61884     -32234.202      776.06383      23.496         23.496         103.68812      0              0              0            
     34600   846.06286     -32372.385      139.87426     -32232.511      1198.7469      23.496         23.496         102.86858      0              0              0            
     34700   829.42011     -32368.82       137.12282     -32231.697      1769.2995      23.496         23.496         102.3025       0              0              0            
     34800   868.17655     -32375.776      143.53018     -32232.246      2533.274       23.496         23.496         102.44946      0              0              0            
     34900   843.32362     -32371.285      139.4214      -32231.864      2363.7835      23.496         23.496         102.53976      0              0              0            
     35000   862.82575     -32375.825      142.64557     -32233.179      1312.0278      23.496         23.496         102.03012      0              0              0            
     35100   864.19568     -32374.524      142.87205     -32231.652      2103.4199      23.496         23.496         101.80621      0              0              0            
     35200   844.72728     -32369.889      139.65346     -32230.236      409.10603      23.496         23.496         102.67985      0              0              0            
     35300   843.34609     -32368.01       139.42512     -32228.585      1085.4298      23.496         23.496         103.14567      0              0              0            
     35400   849.98649     -32368.295      140.52293     -32227.772      661.53312      23.496         23.496         102.941        0              0              0            
     35500   862.22669     -32371.081      142.54653     -32228.534      1397.5139      23.496         23.496         102.63358      0              0              0            
     35600   824.35812     -32366.352      136.28595     -32230.066      1497.943       23.496         23.496         102.55521      0              0              0            
     35700   882.23127     -32371.462      145.85376     -32225.608      2959.455       23.496         23.496         101.94816      0              0              0            
     35800   870.1631      -32367.796      143.85861     -32223.938      3221.1257      23.496         23.496         101.5574       0              0              0            
     35900   871.80164     -32367.46       144.12949     -32223.33       2274.1327      23.496         23.496         102.41191      0              0              0            
     36000   846.70804     -32363.703      139.98093     -32223.722      770.37603      23.496         23.496         103.07342      0              0              0            
     36100   860.64682     -32366.182      142.28534     -32223.896      2194.0482      23.496         23.496         102.24102      0              0              0            
     36200   877.35995     -32367.584      145.04842     -32222.535      1552.2906      23.496         23.496         102.515        0              0              0            
     36300   868.91783     -32364.531      143.65273     -32220.878      1604.7851      23.496         23.496         102.83702      0              0              0            
     36400   884.51482     -32366.461      146.23129     -32220.23       1998.0537      23.496         23.496         102.88644      0              0              0            
     36500   883.0122      -32364.843      145.98287     -32218.86       1065.5871      23.496         23.496         102.69473      0              0              0            
     36600   872.8903      -32363.183      144.30948     -32218.874      2992.696       23.496         23.496         102.24166      0              0              0            
     36700   863.78638     -32361.931      142.80438     -32219.127      1730.4548      23.496         23.496         103.2287       0              0              0            
     36800   879.12925     -32364.086      145.34092     -32218.746      2566.0899      23.496         23.496         102.84053      0              0              0            
     36900   908.11827     -32366.409      150.1335      -32216.275      1917.824       23.496         23.496         102.05262      0              0              0            
     37000   921.8819      -32365.506      152.40895     -32213.097      1700.2434      23.496         23.496         102.89678      0              0              0            
     37100   876.71134     -32359.103      144.94119     -32214.161      2269.1071      23.496         23.496         102.78544      0              0              0            
     37200   890.1424      -32364.245      147.16166     -32217.084      1889.1759      23.496         23.496         102.35434      0              0              0            
     37300   903.37036     -32366.62       149.34855     -32217.271      2187.0599      23.496         23.496         102.02743      0              0              0            
     37400   897.32781     -32367.941      148.34958     -32219.591      2278.6212      23.496         23.496         101.98241      0              0              0            
     37500   872.68962     -32364.479      144.2763      -32220.203      1622.2294      23.496         23.496         102.48101      0              0              0            
     37600   872.40887     -32366.93       144.22988     -32222.701      1160.9515      23.496         23.496         102.43254      0              0              0            
     37700   857.48397     -32366.57       141.76244     -32224.807      1755.3464      23.496         23.496         102.05348      0              0              0            
     37800   867.46585     -32367.543      143.41269     -32224.13       2011.482       23.496         23.496         101.57183      0              0              0            
     37900   859.19266     -32366.151      142.04493     -32224.106      2160.0954      23.496         23.496         101.52233      0              0              0            
     38000   877.71824     -32369.043      145.10765     -32223.935      1546.1389      23.496         23.496         101.95368      0              0              0            
     38100   868.72695     -32369.704      143.62118     -32226.083      1910.9377      23.496         23.496         101.90203      0              0              0            
     38200   878.40137     -32370.411      145.22059     -32225.19       2531.9828      23.496         23.496         101.21388      0              0              0            
     38300   865.29041     -32369.339      143.05303     -32226.286      1722.9519      23.496         23.496         101.61254      0              0              0            
     38400   850.76066     -32366.797      140.65092     -32226.146      1518.0493      23.496         23.496         102.08801      0              0              0            
     38500   878.33431     -32368.601      145.2095      -32223.392      1675.6166      23.496         23.496         102.10346      0              0              0            
     38600   866.05234     -32368.137      143.179       -32224.958      1749.614       23.496         23.496         101.78413      0              0              0            
     38700   866.46027     -32366.154      143.24644     -32222.907      1480.1989      23.496         23.496         101.79236      0              0              0            
     38800   855.25969     -32365.734      141.39472     -32224.339      2398.4003      23.496         23.496         101.65846      0              0              0            
     38900   883.81695     -32367.719      146.11591     -32221.603      994.50784      23.496         23.496         102.48646      0              0              0            
     39000   864.46551     -32364.709      142.91666     -32221.792      1953.5552      23.496         23.496         102.52372      0              0              0            
     39100   873.20704     -32365.594      144.36184     -32221.233      2195.2928      23.496         23.496         101.7516       0              0              0            
     39200   883.67325     -32368.796      146.09215     -32222.704      1242.3881      23.496         23.496         101.99415      0              0              0            
     39300   874.74418     -32363.781      144.61597     -32219.165      798.406        23.496         23.496         102.6963       0              0              0            
     39400   883.92751     -32365.054      146.13419     -32218.92       2397.1036      23.496         23.496         102.13311      0              0              0            
     39500   911.15072     -32365.716      150.63483     -32215.081      1929.1846      23.496         23.496         101.97069      0              0              0            
     39600   903.06779     -32364.879      149.29853     -32215.58       2277.8373      23.496         23.496         102.80473      0              0              0            
     39700   857.55172     -32359.765      141.77364     -32217.992      1003.837       23.496         23.496         103.39305      0              0              0            
     39800   910.17335     -32369.861      150.47325     -32219.387      521.73966      23.496         23.496         102.81257      0              0              0            
     39900   877.52165     -32362.485      145.07515     -32217.409      1775.5692      23.496         23.496         102.49801      0              0              0            
     40000   883.93332     -32362.626      146.13515     -32216.491      2410.9354      23.496         23.496         102.59745      0              0              0            
     40100   879.06036     -32362.164      145.32953     -32216.835      1285.0356      23.496         23.496         102.94305      0              0              0            
     40200   895.78888     -32365.18       148.09515     -32217.085      1913.1601      23.496         23.496         102.50258      0              0              0            
     40300   893.58981     -32366.597      147.7316      -32218.865      1901.0218      23.496         23.496         102.22103      0              0              0            
     40400   900.12897     -32369.415      148.81267     -32220.603      1176.9342      23.496         23.496         102.3052       0              0              0            
     40500   857.08442     -32366.758      141.69639     -32225.061      1579.9674      23.496         23.496         102.31562      0              0              0            
     40600   887.13273     -32372.323      146.66409     -32225.658      1961.5228      23.496         23.496         101.52948      0              0              0            
     40700   881.6571      -32370.481      145.75884     -32224.722      1511.2064      23.496         23.496         102.07218      0              0              0            
     40800   881.17091     -32370.429      145.67846     -32224.751      772.04649      23.496         23.496         102.58423      0              0              0            
[...]
   1640500   895.26974     -32433.977      148.00933     -32285.967      3332.5532      23.496         23.496         96.796796      0              0              0            
   1640600   881.12768     -32434.376      145.67131     -32288.705      3939.7697      23.496         23.496         96.343104      0              0              0            
   1640700   860.45425     -32433.168      142.2535      -32290.915      2447.5006      23.496         23.496         97.15065       0              0              0            
   1640800   842.73422     -32429.846      139.32396     -32290.522      3308.1046      23.496         23.496         97.249096      0              0              0            
   1640900   879.01979     -32433.988      145.32283     -32288.665      4857.1001      23.496         23.496         96.328596      0              0              0            
   1641000   848.59914     -32428.479      140.29357     -32288.186      4006.3999      23.496         23.496         96.7365        0              0              0            
   1641100   849.04332     -32431.332      140.367       -32290.965      3136.1118      23.496         23.496         97.435912      0              0              0            
   1641200   891.30761     -32441.409      147.35429     -32294.055      3967.0866      23.496         23.496         96.445259      0              0              0            
   1641300   860.19347     -32434.103      142.21039     -32291.893      3375.281       23.496         23.496         96.829255      0              0              0            
   1641400   858.34367     -32433.823      141.90457     -32291.919      2727.9714      23.496         23.496         97.240388      0              0              0            
   1641500   885.52915     -32437.167      146.39898     -32290.768      4294.2526      23.496         23.496         96.514684      0              0              0            
   1641600   877.56353     -32434.333      145.08207     -32289.251      3223.605       23.496         23.496         97.130502      0              0              0            
   1641700   870.92966     -32435.243      143.98534     -32291.258      2265.5525      23.496         23.496         97.328758      0              0              0            
   1641800   868.84395     -32433.882      143.64052     -32290.242      3434.7615      23.496         23.496         96.832247      0              0              0            
   1641900   866.10577     -32432.732      143.18783     -32289.544      3897.6936      23.496         23.496         96.945647      0              0              0            
   1642000   884.95372     -32432.609      146.30385     -32286.305      2901.5953      23.496         23.496         97.652396      0              0              0            
   1642100   870.84465     -32433.972      143.97128     -32290.001      3116.3293      23.496         23.496         96.95813       0              0              0            
   1642200   850.24673     -32434.141      140.56596     -32293.575      4472.885       23.496         23.496         96.357886      0              0              0            
   1642300   848.60032     -32433.982      140.29377     -32293.688      3439.3595      23.496         23.496         97.168044      0              0              0            
   1642400   842.5952      -32431.358      139.30098     -32292.057      3423.1816      23.496         23.496         97.376         0              0              0            
   1642500   879.0686      -32436.59       145.3309      -32291.259      3898.7837      23.496         23.496         96.855195      0              0              0            
   1642600   853.30638     -32431.918      141.07179     -32290.846      3075.3369      23.496         23.496         96.935775      0              0              0            
   1642700   844.88328     -32432.004      139.67925     -32292.324      3382.9925      23.496         23.496         97.209753      0              0              0            
   1642800   861.32665     -32434.027      142.39773     -32291.63       3282.964       23.496         23.496         96.648922      0              0              0            
   1642900   886.48057     -32433.342      146.55627     -32286.785      3607.3713      23.496         23.496         96.71867       0              0              0            
   1643000   875.63797     -32433.081      144.76373     -32288.318      2753.8312      23.496         23.496         97.267616      0              0              0            
   1643100   883.67131     -32434.778      146.09183     -32288.687      3523.493       23.496         23.496         96.541284      0              0              0            
   1643200   869.20231     -32433.376      143.69976     -32289.676      3018.1009      23.496         23.496         96.818762      0              0              0            
   1643300   866.93947     -32435.072      143.32566     -32291.747      2846.6238      23.496         23.496         97.202048      0              0              0            
   1643400   868.65979     -32433.478      143.61007     -32289.868      3581.6178      23.496         23.496         96.711182      0              0              0            
   1643500   871.16023     -32431.823      144.02346     -32287.8        3188.6374      23.496         23.496         96.763224      0              0              0            
   1643600   880.23231     -32435.455      145.52329     -32289.932      2206.1471      23.496         23.496         97.283938      0              0              0            
   1643700   898.2882      -32438.469      148.50835     -32289.961      3514.4812      23.496         23.496         96.897145      0              0              0            
   1643800   848.64996     -32429.647      140.30197     -32289.345      4855.2496      23.496         23.496         96.332882      0              0              0            
   1643900   853.17295     -32431.015      141.04973     -32289.965      2988.2428      23.496         23.496         97.452618      0              0              0            
   1644000   859.92467     -32433.734      142.16595     -32291.568      3426.0238      23.496         23.496         97.193088      0              0              0            
   1644100   846.49409     -32431.176      139.94556     -32291.23       3775.0519      23.496         23.496         96.472457      0              0              0            
   1644200   881.50629     -32435.511      145.7339      -32289.777      3661.7706      23.496         23.496         96.982674      0              0              0            
   1644300   851.94937     -32433.029      140.84744     -32292.181      3805.7081      23.496         23.496         97.188173      0              0              0            
   1644400   848.50787     -32433.074      140.27848     -32292.796      4479.2262      23.496         23.496         96.525204      0              0              0            
   1644500   881.68913     -32433.013      145.76413     -32287.249      3256.0119      23.496         23.496         96.774437      0              0              0            
   1644600   873.29248     -32433.922      144.37597     -32289.546      2496.0804      23.496         23.496         96.919531      0              0              0            
   1644700   862.63181     -32430.615      142.6135      -32288.001      3545.0421      23.496         23.496         96.948162      0              0              0            
   1644800   866.51218     -32431.413      143.25502     -32288.158      4447.0115      23.496         23.496         96.524269      0              0              0            
   1644900   888.91025     -32433.739      146.95795     -32286.781      3706.4265      23.496         23.496         96.68079       0              0              0            
   1645000   852.73719     -32430.532      140.97769     -32289.554      3544.4812      23.496         23.496         96.897429      0              0              0            
   1645100   889.34453     -32433.284      147.02975     -32286.254      3620.3515      23.496         23.496         96.844362      0              0              0            
   1645200   882.42584     -32432.356      145.88593     -32286.47       2639.283       23.496         23.496         97.299842      0              0              0            
   1645300   893.63769     -32435.257      147.73951     -32287.518      3689.8751      23.496         23.496         96.714707      0              0              0            
   1645400   860.26058     -32431.746      142.22148     -32289.524      3973.1712      23.496         23.496         96.648487      0              0              0            
   1645500   877.38597     -32433.145      145.05272     -32288.092      3094.5851      23.496         23.496         97.258801      0              0              0            
   1645600   874.76318     -32435.461      144.61911     -32290.842      3620.6435      23.496         23.496         97.078062      0              0              0            
   1645700   865.22177     -32436.009      143.04169     -32292.967      4731.6666      23.496         23.496         96.303507      0              0              0            
   1645800   862.41643     -32434.382      142.5779      -32291.804      3634.6727      23.496         23.496         96.4255        0              0              0            
   1645900   852.42295     -32432.566      140.92574     -32291.64       4121.6634      23.496         23.496         96.91658       0              0              0            
   1646000   868.69726     -32433.56       143.61627     -32289.944      2508.1479      23.496         23.496         97.445922      0              0              0            
   1646100   851.79657     -32430.019      140.82218     -32289.197      4818.7925      23.496         23.496         96.444086      0              0              0            
   1646200   872.90834     -32431.732      144.31246     -32287.419      3228.7293      23.496         23.496         96.823766      0              0              0            
   1646300   870.04203     -32432.278      143.83859     -32288.439      3149.3344      23.496         23.496         97.009616      0              0              0            
   1646400   845.11202     -32430.079      139.71707     -32290.361      5060.1948      23.496         23.496         96.104985      0              0              0            
   1646500   862.82676     -32431.421      142.64573     -32288.775      2942.4166      23.496         23.496         96.990753      0              0              0            
   1646600   870.84471     -32430.867      143.97129     -32286.896      3859.8367      23.496         23.496         97.036925      0              0              0            
   1646700   889.65008     -32434.382      147.08027     -32287.302      4341.2808      23.496         23.496         96.687593      0              0              0            
   1646800   864.94113     -32428.68       142.99529     -32285.685      3029.2676      23.496         23.496         96.931644      0              0              0            
   1646900   862.63637     -32427.153      142.61426     -32284.539      2762.1457      23.496         23.496         97.50701       0              0              0            
   1647000   881.84197     -32433.519      145.7894      -32287.729      3470.842       23.496         23.496         97.141112      0              0              0            
   1647100   888.06821     -32437.549      146.81874     -32290.731      4058.2115      23.496         23.496         96.469331      0              0              0            
   1647200   860.69535     -32433.422      142.29336     -32291.129      2859.8311      23.496         23.496         97.440628      0              0              0            
   1647300   841.15196     -32429.74       139.06238     -32290.678      3102.4347      23.496         23.496         97.20825       0              0              0            
   1647400   881.53317     -32436.217      145.73835     -32290.479      3820.6703      23.496         23.496         96.36524       0              0              0            
   1647500   864.8654      -32434.907      142.98277     -32291.924      2722.4569      23.496         23.496         96.898229      0              0              0            
   1647600   888.34087     -32436.741      146.86382     -32289.877      3302.4905      23.496         23.496         96.643107      0              0              0            
   1647700   850.99527     -32433.694      140.68971     -32293.005      3714.4709      23.496         23.496         97.083458      0              0              0            
   1647800   852.9417      -32434.632      141.0115      -32293.62       2815.4988      23.496         23.496         97.147288      0              0              0            
   1647900   903.96063     -32440.977      149.44614     -32291.531      3879.5517      23.496         23.496         96.234039      0              0              0            
   1648000   854.2279      -32431.765      141.22414     -32290.54       3361.7118      23.496         23.496         96.888137      0              0              0            
   1648100   888.60709     -32435.888      146.90783     -32288.98       3494.7433      23.496         23.496         96.685905      0              0              0            
   1648200   863.11979     -32433.821      142.69418     -32291.127      2778.634       23.496         23.496         96.848087      0              0              0            
   1648300   886.71922     -32435.86       146.59573     -32289.264      3691.0082      23.496         23.496         96.674487      0              0              0            
   1648400   901.67691     -32436.464      149.06859     -32287.395      3086.5457      23.496         23.496         96.935761      0              0              0            
   1648500   839.24877     -32427.84       138.74773     -32289.092      3067.8094      23.496         23.496         97.38185       0              0              0            
   1648600   871.04332     -32435.092      144.00413     -32291.088      4130.3611      23.496         23.496         96.773684      0              0              0            
   1648700   858.69965     -32432.721      141.96342     -32290.757      4704.6746      23.496         23.496         96.690623      0              0              0            
   1648800   850.26225     -32434.525      140.56852     -32293.956      3462.0834      23.496         23.496         97.161017      0              0              0            
   1648900   841.90547     -32430.918      139.18695     -32291.731      3986.031       23.496         23.496         96.622949      0              0              0            
   1649000   861.8568      -32433.988      142.48538     -32291.503      3529.4889      23.496         23.496         96.956049      0              0              0            
   1649100   864.94804     -32433.989      142.99643     -32290.993      3056.5075      23.496         23.496         97.07102       0              0              0            
   1649200   854.23809     -32431.049      141.22582     -32289.823      3964.3339      23.496         23.496         96.666122      0              0              0            
   1649300   868.85556     -32429.129      143.64244     -32285.487      3039.2106      23.496         23.496         96.885244      0              0              0            
   1649400   847.24236     -32428.69       140.06926     -32288.62       3539.3251      23.496         23.496         97.179982      0              0              0            
   1649500   881.55191     -32436.274      145.74145     -32290.533      3343.0545      23.496         23.496         96.820243      0              0              0            
   1649600   852.40754     -32432.097      140.92319     -32291.174      4167.9465      23.496         23.496         96.631601      0              0              0            
   1649700   834.97409     -32429.945      138.04103     -32291.904      2994.4283      23.496         23.496         97.009804      0              0              0            
   1649800   861.4194      -32433.712      142.41306     -32291.299      4386.3215      23.496         23.496         96.835034      0              0              0            
   1649900   881.92749     -32439.455      145.80354     -32293.651      4046.5398      23.496         23.496         96.953821      0              0              0            
   1650000   840.02572     -32433.772      138.87618     -32294.896      3845.4283      23.496         23.496         96.987449      0              0              0            
   1650100   836.58982     -32434.908      138.30815     -32296.599      2871.8986      23.496         23.496         96.663384      0              0              0            
   1650200   868.21603     -32437.142      143.53671     -32293.606      3331.1812      23.496         23.496         96.583682      0              0              0            
   1650300   884.84889     -32439.432      146.28651     -32293.145      3641.9225      23.496         23.496         96.568052      0              0              0            
   1650400   827.42609     -32431.905      136.79316     -32295.112      2823.1305      23.496         23.496         96.987582      0              0              0            
   1650500   853.66902     -32437.687      141.13174     -32296.555      3968.2713      23.496         23.496         96.273886      0              0              0            
   1650600   850.82026     -32438.267      140.66078     -32297.606      3586.5961      23.496         23.496         96.46239       0              0              0            
   1650700   873.16145     -32440.964      144.3543      -32296.61       3332.9068      23.496         23.496         96.788304      0              0              0            
   1650800   858.62852     -32439.468      141.95167     -32297.516      3697.3318      23.496         23.496         96.49144       0              0              0            
   1650900   887.97021     -32443.572      146.80254     -32296.77       3841.092       23.496         23.496         96.146632      0              0              0            
   1651000   864.81767     -32439.255      142.97488     -32296.28       2517.0969      23.496         23.496         96.962879      0              0              0            
   1651100   870.7026      -32439.096      143.9478      -32295.148      3588.083       23.496         23.496         96.584747      0              0              0            
   1651200   835.98463     -32435.513      138.20809     -32297.305      3184.3856      23.496         23.496         96.755095      0              0              0            
   1651300   865.48021     -32437.186      143.08441     -32294.102      3499.7942      23.496         23.496         96.756153      0              0              0            
   1651400   861.12747     -32437.163      142.3648      -32294.799      3861.5635      23.496         23.496         96.287579      0              0              0            
   1651500   848.39013     -32434.779      140.25902     -32294.52       3051.5585      23.496         23.496         96.625522      0              0              0            
   1651600   884.83806     -32440.726      146.28472     -32294.442      3714.7687      23.496         23.496         96.780477      0              0              0            