LAMMPS data file via write_data, version 29 Aug 2024, timestep = 1000, units = metal

1280 atoms
3 atom types

0 23.496 xlo xhi
0 23.496 ylo yhi
0 97 zlo zhi
0 0 0 xy xz yz

Masses

1 79.904
2 132.904999
3 207.199997

Atoms # atomic

47 1 2.494903961515263 0.6551743404836234 2.1452412434442527 0 0 0
48 1 0.014090653962072121 3.7397265120068908 3.33838602077885 0 0 0
1040 3 2.868125534777709 3.5689774304694915 2.8305622801475296 0 0 0
226 1 9.32359494972432 3.1483442239823587 0.07998752884526845 0 0 0
227 1 9.070767008360248 0.41790885915306397 2.7913447958825506 0 0 0
228 1 5.722407395373604 3.286101579503546 2.4731429859817244 0 0 0
844 2 6.474206360086786 0.6346220744659528 0.030620938336313408 0 0 0
1100 3 8.734812527442688 3.694697904461165 2.8838097101958025 0 0 0
240 1 11.843946612815063 3.7701591236379843 3.4001271451044786 0 0 0
36 1 17.509095784780424 3.3767953149932164 2.8916061601570413 -1 0 0
238 1 14.18256713295324 3.1049374522749456 0.07205007113345961 0 0 0
239 1 14.419269742109275 0.5806064467641654 3.3372872826129965 0 0 0
780 2 16.890261797509297 0.3497724981656931 0.3821638200498733 -1 0 0
1104 3 14.688462206295245 3.5063070861062826 3.026245411395589 0 0 0
34 1 20.787077441410762 3.0189049539092694 0.1585662685544677 -1 0 0
35 1 20.575298251316344 0.8849871168056104 3.3467788272892682 -1 0 0
1036 3 20.511252482171578 3.8342298754391186 3.0931915813555815 -1 0 0
136 1 2.667216246700176 8.577165087342646 0.21550096468959445 0 0 0
137 1 2.943240179755863 6.478952316426242 3.3104564905139817 0 0 0
317 1 8.715241321589843 6.609699137688423 3.131823390095366 0 0 0
874 2 5.773352292402791 6.330211904802305 0.4994267984106409 0 0 0
1130 3 8.603740206316045 9.393859459193875 3.240138936776959 0 0 0
330 1 11.496478279345117 9.188801171933902 3.504430886220857 0 0 0
878 2 11.705568219048974 6.39521716201761 0.372650493507205 0 0 0
329 1 14.239929938105833 6.44327033961856 2.7109865230830663 0 0 0
810 2 17.537254664700004 6.960498937179895 0.26336018661451743 -1 0 0
138 1 23.260137158152798 9.077690782018617 3.4590849007051907 -1 0 0
814 2 23.240245305212333 6.557592513344361 0.47169518932071597 -1 0 0
124 1 20.482205613230565 9.22667313659874 0.03246584220936526 -1 0 0
125 1 19.878165939452916 6.7137821064796555 2.944849251622129 -1 0 0
1070 3 2.9011581061203096 9.499901146459456 3.0796582395828374 0 0 0
143 1 2.7031800009976488 12.577098003552672 2.3011890375721427 0 0 0
316 1 9.235535965520118 9.654394808315896 0.2437950065646274 0 0 0
318 1 5.779366200380167 9.931540076322111 2.6350080108853318 0 0 0
323 1 8.81317122821617 12.393589978580014 3.468873377595631 0 0 0
876 2 5.8120711854911224 12.463012191048598 0.20819650321649794 0 0 0
880 2 11.692618504952625 12.56076577655096 0.4966327892959551 0 0 0
126 1 17.430841083906607 9.949289841483974 2.7366721679494157 -1 0 0
328 1 14.778599053638033 9.411734420995623 0.08067691829059864 0 0 0
1134 3 14.53388691670102 9.46891033160796 2.931741829079414 0 0 0
335 1 14.351951959785609 12.396556170131646 3.3920347409434366 0 0 0
1066 3 20.267939697925183 9.591292145645774 3.018794464459205 -1 0 0
816 2 23.3545004258076 11.91807952597995 0.3605618843992628 -1 0 0
131 1 20.275322307072965 12.457619518122641 3.187119768572235 -1 0 0
41 1 3.0067031118414778 18.353394184716308 2.9909676645993066 0 -1 0
142 1 2.6853925814653463 15.200675556434602 0.14422403658836436 0 0 0
1072 3 2.598088246803495 15.50458880643809 2.9800339751643694 0 0 0
221 1 8.419458262498361 18.103103822548796 3.046084988744134 0 -1 0
322 1 8.390721571734117 14.799922863000349 0.12855588027434658 0 0 0
324 1 5.563278073430002 15.444716607646459 2.8500810913867585 0 0 0
842 2 5.493121426828713 17.7992147893104 0.15992421983368585 0 -1 0
1132 3 8.516883776774787 15.17091833018114 2.918563245805431 0 0 0
336 1 11.511108603576753 15.272991693766032 3.204528957682596 0 0 0
846 2 11.940602238859745 18.02188413125101 0.3582359181733444 0 -1 0
132 1 17.518154264891212 15.33680844640778 2.849245838301553 -1 0 0
233 1 14.634494806446051 18.220364412650458 2.857003327444891 0 -1 0
334 1 15.003938647784507 14.893853212628152 0.17173391312440953 0 0 0
778 2 17.70741404048487 17.55009764409001 0.31373232691531594 -1 -1 0
1136 3 14.50005276517163 15.439083749264544 3.1286866118296 0 0 0
144 1 23.31575647417932 15.591168229889352 2.7153314028336224 -1 0 0
782 2 23.33721953610332 18.143576690442153 0.23300742963793064 -1 -1 0
29 1 20.15679263239845 18.343125562461562 3.010809458559316 -1 -1 0
130 1 20.870487580227103 15.197787132601272 0.3302595729332666 -1 0 0
1068 3 20.436384445365384 15.412322520679155 3.180026331661556 -1 0 0
40 1 2.776287017356319 20.348089971043958 0.09636130929038526 0 -1 0
1038 3 3.0631987774648954 21.33971407601499 2.7820214776612584 0 -1 0
222 1 5.887419136736909 20.9631246634842 1.9179809125731269 0 -1 0
1098 3 8.5348175325616 20.854573734329833 3.165401521736696 0 -1 0
220 1 9.488488801462708 21.007007814464632 0.18216832671492347 0 -1 0
234 1 11.709362891016374 21.078802638357125 3.996092918878428 0 -1 0
30 1 17.280968403733315 21.577398790117694 2.8749725385168174 -1 -1 0
232 1 14.374026161042096 21.12639222731135 0.15218414116930631 0 -1 0
1102 3 14.43543567382685 21.207976546992562 3.101165171338755 0 -1 0
42 1 23.455153648396013 21.02636679632999 3.134861396655641 -1 -1 0
28 1 20.374792880740877 21.412181481815136 0.09107956469942627 -1 -1 0
1034 3 20.279804068001322 21.522673980685486 2.9828588772039386 -1 -1 0
67 1 2.9674075785061516 2.6722580470817183 5.78447580738465 0 0 0
68 1 2.68594984282744 0.6078959486759417 9.154187130031033 0 0 0
791 2 0.2532444461515345 0.5021435785087619 5.321449866957807 0 0 0
1047 3 2.7970907624808383 3.4690486605582747 8.670953257744733 0 0 0
247 1 8.173976162717901 2.988258663204931 5.697700067266833 0 0 0
248 1 8.29534244242447 0.7945471527729293 9.189436195684896 0 0 0
249 1 5.588070579906712 3.720324737634769 9.214468834652902 0 0 0
851 2 5.626172390594646 0.6635783619701976 6.325114214419394 0 0 0
1107 3 8.687860752200326 3.512038017556986 8.810419886536348 0 0 0
261 1 11.685160719946534 3.1369658529403877 7.8108946806374 0 0 0
855 2 11.357088956693785 0.6166304783202224 5.547351522532331 0 0 0
57 1 17.40451788782045 3.859535036036297 9.099277668523488 -1 0 0
259 1 15.633920517345173 3.8418886158077328 5.901235472645346 0 0 0
260 1 14.64705825050231 0.207644775164395 8.537590685946405 0 0 0
787 2 17.326722000507186 0.7133932627092794 6.030503636003257 -1 0 0
1111 3 14.419781160382525 3.0868810361362624 8.492223401204797 0 0 0
69 1 23.361511392404907 3.0218958754615657 8.206762128006895 -1 0 0
55 1 19.846591993177967 4.190388296353937 5.831155815231687 -1 0 0
1043 3 20.462610830424396 3.4121954820859606 8.825541455474564 -1 0 0
158 1 2.8710560807689633 6.63613268904082 8.069086223347407 0 0 0
337 1 8.016375568786728 9.368386789310645 6.1407993571204695 0 0 0
338 1 8.963372023198596 6.518637496815584 8.697441490527972 0 0 0
339 1 5.534600192267143 9.365511704453796 9.234917691804492 0 0 0
881 2 6.082968186856482 6.2622923558404375 5.98743067093689 0 0 0
885 2 11.837754675321726 6.446464947672773 5.697518849807448 0 0 0
147 1 17.27757053490524 8.966294265159128 8.95472457792192 -1 0 0
349 1 14.566593523688294 8.923767473032434 5.912633455272594 0 0 0
350 1 14.148409859770247 6.10154695098337 8.76903585755875 0 0 0
817 2 17.312681333670604 6.860413386343648 6.417031413588068 -1 0 0
1141 3 14.270886863592873 9.09679931236807 8.948416834344526 0 0 0
821 2 23.166619745513703 6.295872709514585 6.34778100816782 -1 0 0
146 1 20.369524489757776 6.596005221641859 8.981980038936129 -1 0 0
157 1 3.1148222552640066 10.06696065494908 5.936201691553504 0 0 0
1077 3 2.6025070615217905 9.449754611534214 8.872170795142896 0 0 0
1137 3 8.54767877035063 9.418140138373577 9.01963798886055 0 0 0
344 1 8.213324716331973 12.193052899979474 8.403478023886313 0 0 0
883 2 5.646568400913453 12.53979748892694 5.71139300496285 0 0 0
351 1 11.476961040936901 9.65277413872558 8.758560992102694 0 0 0
887 2 11.309062455249265 11.656967478872483 6.154081988057684 0 0 0
356 1 14.444975225684106 12.274326789037303 8.871156032301602 0 0 0
819 2 17.55208333318057 12.528217365053381 5.580557645035415 -1 0 0
159 1 23.216078317316462 9.44202287940818 9.216607887016934 -1 0 0
145 1 19.912668341566036 9.47838050281661 5.93408776013497 -1 0 0
1073 3 20.2014869648423 9.414550524798736 8.856733505738173 -1 0 0
823 2 23.42225440225214 12.138223007595228 6.108207785499357 -1 0 0
152 1 20.510273957598958 12.268567497224442 9.041434994687723 -1 0 0
62 1 2.3220462929578756 18.05097900117721 7.718961328553816 0 -1 0
163 1 2.512177919653555 14.490147590691846 5.788536821199874 0 0 0
1079 3 2.480187894884018 15.14867284205113 8.909100215429886 0 0 0
242 1 8.429628305189985 18.090714938166236 8.886115158140994 0 -1 0
343 1 8.0493550022011 15.737087519115242 5.819548812638689 0 0 0
345 1 5.496683968078923 15.297055999116404 9.132101835118476 0 0 0
849 2 5.4921979467939614 18.434043120838535 5.534816710055854 0 -1 0
1139 3 8.440720649211617 15.070141955557753 8.815512441870997 0 0 0
357 1 11.350194527841007 14.985342457468542 8.671892723137805 0 0 0
853 2 11.374876164104565 17.914496978162 6.445488513133747 0 -1 0
355 1 14.927274939569696 15.6204811860635 6.1342885020205395 0 0 0
785 2 17.546071001313422 18.19821686742058 6.47878540731448 -1 -1 0
1143 3 14.514395700803691 15.153581829077032 8.970750723100501 0 0 0
165 1 22.988314025694407 15.48760171417049 8.597033576952896 -1 0 0
789 2 22.763391744818048 18.07781588227437 5.778551726762056 -1 -1 0
50 1 20.39884737629939 18.121778882023072 8.413240806340477 -1 -1 0
151 1 20.00280314574848 15.118468319399401 6.094542240509758 -1 0 0
1075 3 20.262335604587044 14.974113880244758 9.049074454112064 -1 0 0
61 1 3.0078622648471782 21.661139340308747 5.807671643967285 0 -1 0
1045 3 2.360909900551091 20.923752260052662 8.609723578494343 0 -1 0
241 1 7.884294564374163 21.083688061404988 5.991321622075982 0 -1 0
1105 3 8.448285373235246 21.229607278315758 8.690433770647077 0 -1 0
255 1 11.383323084303404 21.80438123923521 8.135948801827642 0 -1 0
253 1 14.871759795215974 20.74529943711785 5.88020866961474 0 -1 0
1109 3 14.338787156545912 20.79579131971856 8.688025529376697 0 -1 0
63 1 23.201205504216983 21.166604452222067 7.704381634710287 -1 -1 0
49 1 19.743109852313623 21.208534582842397 5.972473642028716 -1 -1 0
1041 3 20.306325134569168 21.023877963758956 8.875314214713478 -1 -1 0
70 1 2.085565035197815 4.322797491074196 11.484839792754338 0 0 0
250 1 8.718523156385316 3.4260457300791143 11.588572957527418 0 0 0
852 2 5.1298320460867535 0.7168387252393921 11.697512705694292 0 0 0
856 2 11.216139307063187 0.42139315587371906 12.014203772656932 0 0 0
262 1 13.622400615431184 3.4189058108313692 11.553664249779715 0 0 0
788 2 17.292799584196036 0.38428616289466044 11.668860446453225 -1 0 0
56 1 19.881143013235697 0.5881430139461351 9.420588362406413 -1 0 0
792 2 23.202276222691165 0.8964110604371248 11.85690756014764 -1 0 0
58 1 20.615783035322224 3.4926126368964834 11.647096918334737 -1 0 0
59 1 20.179468362201497 0.3270472863891316 13.820243950117366 -1 0 0
160 1 2.69418558681902 8.950060409350096 11.828029280133986 0 0 0
882 2 5.70920899443906 6.543198176517774 11.893105251922984 0 0 0
886 2 11.557839575704664 6.274292858520453 11.4376706481766 0 0 0
352 1 14.022050195626687 8.935738072308078 11.727336639925698 0 0 0
818 2 16.827880047193844 6.323071235905969 11.319406812914032 -1 0 0
822 2 22.772827379016814 6.820817458536903 12.151954816623753 -1 0 0
164 1 1.8736146911719291 12.328585734860924 9.719726243901391 0 0 0
167 1 2.9423941853344107 12.220517600490693 13.661264773092322 0 0 0
340 1 8.540745563558707 9.70620456289727 11.831582996465922 0 0 0
884 2 5.806426646090133 12.227991687957166 11.665513562528195 0 0 0
888 2 11.602219227014011 11.823203101151432 12.3134260540616 0 0 0
820 2 17.024226346152105 11.714373577782045 11.463113889403648 -1 0 0
148 1 20.229969580940296 9.432086547679917 12.101040651505269 -1 0 0
824 2 22.769108172951682 11.907177033327782 12.055301353705314 -1 0 0
166 1 2.5289000261917876 15.862694415650692 11.536064447859804 0 0 0
346 1 8.576058318685858 14.777186977535466 11.85615448448491 0 0 0
850 2 5.598961694314713 17.922629771565564 11.469645774546628 0 -1 0
254 1 13.790314693370757 18.199824424215006 9.457188810929695 0 -1 0
854 2 10.923612314390791 17.782280145792278 11.111129812349512 0 -1 0
358 1 13.41891100247112 14.83855970864639 11.764764251248389 0 0 0
153 1 17.274632528390267 14.630339668028514 9.446389199924868 -1 0 0
786 2 17.842836088372184 17.703729498453153 12.004451618658152 -1 -1 0
790 2 23.01812828232801 17.403878586729693 12.080375941319495 -1 -1 0
154 1 20.608946889074954 15.018631909318374 12.124773514229435 -1 0 0
64 1 1.0909169915982972 20.81974824016087 11.418436948759766 0 -1 0
243 1 5.424262966444132 20.914732511798288 9.274893712271787 0 -1 0
244 1 9.321539394157465 21.035739741419295 11.411073408289727 0 -1 0
246 1 5.289131387508031 21.12228762593707 13.50180284443099 0 -1 0
256 1 13.93889575557764 21.819650776602654 11.553104973607468 0 -1 0
51 1 17.299096144761105 20.469677315350744 9.52822557415412 -1 -1 0
52 1 20.78118354464033 20.180601871139512 11.449894664636993 -1 -1 0
71 1 2.421421463071916 0.5357770942076986 14.42206293384884 0 0 0
91 1 2.3115226487025193 3.169065510635205 17.082750342522726 0 0 0
1048 3 2.2882246116535976 3.2962731987619702 14.13303285744317 0 0 0
251 1 8.186825994307412 0.31290525164129324 14.72421159366078 0 0 0
252 1 5.015026439564451 3.9239598512161886 13.98435014987833 0 0 0
271 1 7.899215676879942 4.1814798414060945 17.16783561217373 0 0 0
859 2 5.192421094359967 0.30448672899436624 17.355998736057817 0 0 0
1108 3 8.171608301317542 3.222416171370125 14.521038784148454 0 0 0
264 1 10.979471262219581 3.2992730258077305 15.275716530442466 0 0 0
863 2 10.930618647603144 0.07850662633694956 17.39434701337515 0 0 0
263 1 14.03669918391081 0.17288133062445651 14.953142789300017 0 0 0
60 1 17.00950584643744 3.623353248569592 14.481844921952787 -1 0 0
283 1 14.192000523346708 3.496910819371738 17.364544912917943 0 0 0
795 2 16.804324423612048 0.22336223611953815 17.084946629333224 -1 0 0
1112 3 14.128546196325177 3.149405278806705 14.492081304141129 0 0 0
72 1 22.914524172935142 3.3112930056393406 14.849006242287139 -1 0 0
799 2 22.08723534257607 0.28841398411136177 17.107774474537443 -1 0 0
79 1 19.798702689190016 2.8120769947350794 17.15522638740818 -1 0 0
1044 3 20.099345018760317 3.560184437125734 14.518259348974542 -1 0 0
161 1 2.158486894332005 6.4406716774948825 14.849095597324304 0 0 0
1078 3 2.343191323211615 9.326956425408373 14.494140440095192 0 0 0
341 1 8.593166847062848 6.31201742388094 13.91098255516303 0 0 0
342 1 5.60571844201019 8.872531727478162 14.715250642001479 0 0 0
361 1 8.147384061938572 8.448051639411835 17.800457980006282 0 0 0
889 2 4.883707650572586 5.514272816336846 17.538803788467316 0 0 0
1138 3 8.512041933334373 8.856842730981088 14.736905827346362 0 0 0
354 1 11.45311472322186 9.165485427930983 14.941835926986771 0 0 0
893 2 11.360286811545754 6.5134268247044735 17.68043070883569 0 0 0
353 1 13.754681859600321 6.1672962822463395 14.411383648671011 0 0 0
150 1 17.1496531946378 8.159451823889839 14.224793755958718 -1 0 0
373 1 14.247122275139061 9.360667723330637 17.724889150013674 0 0 0
825 2 16.9742028348703 6.134414008639809 17.304962010303555 -1 0 0
1142 3 14.300119018335996 8.97339484017169 14.883296221040572 0 0 0
829 2 23.012276788607092 5.721129623081255 17.53747873946748 -1 0 0
149 1 20.53017250583404 6.2969732061425026 14.97681346177424 -1 0 0
1074 3 19.808300334645725 9.24919393708338 14.996323204188334 -1 0 0
181 1 2.72996963469266 9.995322773953609 17.366812147396825 0 0 0
347 1 8.734261610236056 11.989939817147803 15.293114715067428 0 0 0
891 2 5.7523220166296225 12.057732762357675 17.07253196810153 0 0 0
895 2 10.83252331618806 11.399658484747754 17.940347432838227 0 0 0
169 1 18.71813136184382 9.410556457143542 17.47261788287426 -1 0 0
359 1 14.398335995979197 11.911164828072657 14.656358493819132 0 0 0
827 2 16.690406534515557 12.191387225728775 17.62369868703309 -1 0 0
162 1 22.932049245311994 9.758186972424 14.920638069099759 -1 0 0
831 2 23.22626238986233 12.332259323640018 17.367360690801974 -1 0 0
155 1 19.71544570253625 12.131012725044645 14.811713679501539 -1 0 0
65 1 2.5842562505581923 17.782429761239477 14.34006834422231 0 -1 0
187 1 2.5135628239728622 14.459832286430554 17.577157701694116 0 0 0
1080 3 2.677384853345951 14.957698221373711 14.756890491481132 0 0 0
245 1 8.169629934532498 17.908525195769013 14.592697792430492 0 -1 0
348 1 5.694070832084527 14.66486061181501 14.326837794494606 0 0 0
367 1 7.699055821984926 15.079481327633603 17.921044752484995 0 0 0
857 2 5.7216733508649495 17.55924408537593 17.564279838168073 0 -1 0
1140 3 8.567411801049676 14.9123706509227 14.78573874287034 0 0 0
360 1 11.463140614118185 14.903995618813372 15.806974882016807 0 0 0
861 2 10.879541729473639 17.333778919835016 18.101262789525467 0 -1 0
257 1 13.460534762769884 17.670241287772377 14.050123166145816 0 -1 0
156 1 17.287007029042694 15.19993468414884 14.450705899717402 -1 0 0
379 1 14.714538685263403 14.897797703499869 17.30421042393066 0 0 0
793 2 16.990992803582536 17.75231716531491 17.21918083705642 -1 -1 0
1144 3 14.208260299613608 15.026623986401237 14.592160234976266 0 0 0
168 1 23.244125212723322 14.754824489470854 14.751949426085933 -1 0 0
797 2 23.25098778197783 18.109179767913204 16.676033915804133 -1 -1 0
53 1 20.251164362088453 17.974708642755715 14.745004624771486 -1 -1 0
175 1 19.62275976018973 14.64189892418374 17.831150166051597 -1 0 0
1076 3 20.026233383397578 15.115250600230604 15.103840415090666 -1 0 0
85 1 3.4892615238226505 20.47597760384047 16.778354076097283 0 -1 0
1046 3 2.458571347535241 20.76268204275084 14.108450962222788 0 -1 0
265 1 7.544852103598564 20.908608437508317 17.09371963273968 0 -1 0
1106 3 8.271070052893364 20.85485295361098 14.29830454952436 0 -1 0
258 1 10.980933191263906 20.589786362241462 14.98301069061564 0 -1 0
1110 3 13.938414947405539 20.67129240558623 14.49849970138774 0 -1 0
54 1 16.75740889820845 20.70394598985096 14.419231930846085 -1 -1 0
277 1 14.184724960803445 20.878245480263747 17.173510287777038 0 -1 0
66 1 23.003316081133608 21.045503435918786 14.836827467154137 -1 -1 0
73 1 19.628673302072855 21.595886641781913 16.915659976608723 -1 -1 0
1042 3 19.970391079371648 20.993853170665425 14.269411769947784 -1 -1 0
92 1 2.5747129724438533 0.125987619684354 19.945186285629237 0 0 0
1055 3 2.433287603751299 3.2112256881352623 20.26626007071756 0 0 0
272 1 8.107189684506258 0.30246380282012764 19.94146364523308 0 0 0
273 1 5.125416737111602 3.2674313518643903 20.076257606835384 0 0 0
1115 3 8.088812462241366 3.0852339412742644 20.019988753913005 0 0 0
274 1 7.3173135659616335 2.876553373285505 22.826862267828144 0 0 0
860 2 5.130777287405609 0.27382340688184403 22.75614139014724 0 0 0
285 1 11.045015935539249 2.9700926995086943 20.080827706771633 0 0 0
1119 3 13.969005694311473 3.4613954850691226 20.13400501391489 0 0 0
864 2 11.074529041637266 0.5212074060938647 22.89803280349053 0 0 0
81 1 16.97707700720435 3.3127491365113757 19.983130026175942 -1 0 0
284 1 14.321844717868965 0.4271602725117084 19.73403015835856 0 0 0
286 1 14.114385976422504 2.1516072959199346 22.926018900431107 0 0 0
796 2 17.039588894859072 0.07769684792030881 22.706119539471537 -1 0 0
93 1 22.850675311897607 3.0756646244681973 19.586939314223304 -1 0 0
80 1 19.833392336508638 0.4809345869572482 19.907328547242585 -1 0 0
1051 3 19.9992458943917 3.381783870654465 19.95807404255492 -1 0 0
800 2 22.733814433876837 0.21896098775068165 22.183584904304652 -1 0 0
82 1 20.27572133488694 3.1693660694715646 23.04478281638332 -1 0 0
182 1 2.4079780980526717 6.067265146491292 20.056451599445403 0 0 0
1085 3 2.1835046981323414 9.287419594748263 20.164381623886484 0 0 0
184 1 1.7407255247308322 8.61212017307903 22.98100623787072 0 0 0
362 1 7.6570549875222955 5.944733997368778 20.823504317148586 0 0 0
1145 3 7.97016897723162 9.164274412660737 20.617451868514788 0 0 0
890 2 5.0864792948806725 6.036511140500398 23.01953053245385 0 0 0
375 1 11.032152822279643 9.025837627411718 20.32622464165482 0 0 0
1149 3 14.039402195193 9.057012156779649 20.871844085813308 0 0 0
894 2 10.877576356017052 6.21187443572674 22.788904464257666 0 0 0
171 1 16.99783782873526 9.373970933309085 20.745346321513534 -1 0 0
374 1 14.42783522428766 6.4293452746161135 19.91173953795039 0 0 0
826 2 17.589653078810738 6.046138066568389 22.24880792563562 -1 0 0
183 1 22.80311657278012 8.679390865803128 19.674859194953225 -1 0 0
170 1 19.81214526238931 6.28742131555669 19.205214612256782 -1 0 0
1081 3 19.905529412732584 9.194087016808599 20.080856711797466 -1 0 0
830 2 23.131100681977394 5.85071244183635 22.267506328261558 -1 0 0
188 1 1.4014537683437671 11.932147672560038 20.789583321111643 0 0 0
363 1 5.068178489777846 9.577865885088602 20.457403541057005 0 0 0
368 1 8.901471795735587 11.81782079583191 20.995883068900646 0 0 0
369 1 5.118941149018823 13.834611042766436 20.420040715428904 0 0 0
380 1 14.007904660090267 11.931788053661087 19.79521225073114 0 0 0
828 2 16.516150737222965 12.331279329328641 22.754755085986805 -1 0 0
176 1 20.56765976987558 11.964531881626362 20.58504428223887 -1 0 0
86 1 1.8359858490403362 17.952023795284116 19.443891197091965 0 -1 0
1087 3 2.228262972606413 15.05539694226242 20.314608750986444 0 0 0
266 1 8.50987871277027 17.727693776445907 20.418553417774714 0 -1 0
1147 3 7.723561165723375 14.521224369941038 20.931380832455165 0 0 0
858 2 5.430236619527948 18.370702853570567 22.828714839818982 0 -1 0
381 1 11.110113278432491 14.43223892717741 19.65446421840866 0 0 0
1151 3 13.887886007165669 14.84134081641257 20.09022022320784 0 0 0
862 2 11.968991650107297 18.230231340782094 22.684528161715473 0 -1 0
382 1 13.838969127691806 14.494101500913777 22.972348917932145 0 0 0
177 1 17.034525052381774 14.975756436812237 20.325175657249627 -1 0 0
278 1 14.164486367281675 18.05826920475599 19.934419599594033 0 -1 0
794 2 16.2019153451622 17.33254019601116 23.004085089801105 -1 -1 0
189 1 22.94851668378575 15.349619593465423 19.416959242208513 -1 0 0
74 1 20.294856721397743 17.902377576528337 18.85625810140977 -1 -1 0
1083 3 20.13488113498228 15.411965431543813 20.60548938004007 -1 0 0
798 2 22.931360341942575 17.957717962565006 22.101324865222413 -1 -1 0
77 1 19.482872758619344 17.10559162311543 22.908717263332633 -1 -1 0
1053 3 2.5372337868974237 20.81497271931952 19.388027288315058 0 -1 0
88 1 2.1229524265353517 20.6876068965904 22.366641365555058 0 -1 0
267 1 5.579213937432087 21.151322675840287 20.396849249391384 0 -1 0
1113 3 8.328312247436955 20.48212834781737 20.04682853528412 0 -1 0
268 1 8.991301023214671 21.2495099590346 22.839255916765286 0 -1 0
279 1 11.370041396834642 20.91081905241117 19.80398605706614 0 -1 0
75 1 17.08347311496813 21.10675651269475 20.301976105282964 -1 -1 0
1117 3 14.161213994685005 20.934177739914343 20.2607364142114 0 -1 0
87 1 22.94020961629311 21.028907722605233 19.224310525110358 -1 -1 0
1049 3 20.00879240793924 20.649633974820777 19.706878215660264 -1 -1 0
76 1 20.944357017635088 20.49501873557349 22.386304206246816 -1 -1 0
94 1 2.319365944105791 3.6191532464411535 23.099932693755864 0 0 0
95 1 1.7341474674979294 0.1773640455545013 24.669771601096286 0 0 0
1056 3 2.3783771051686036 2.6290201078827264 26.05929270826692 0 0 0
275 1 9.072078927953088 0.642423809401686 25.844736599811124 0 0 0
276 1 5.445289562742382 3.239955360897884 25.93778023596105 0 0 0
1116 3 8.402687857950838 3.4884848740554855 25.629611515545133 0 0 0
288 1 11.343618631663944 3.8150060333334235 25.26343445305628 0 0 0
280 1 12.847330895959137 0.9275201514628083 26.034160016084915 0 0 0
84 1 17.17955847028089 3.6595016907581854 24.594140623879905 -1 0 0
287 1 16.62795231664759 0.06431465800129584 26.657043152097536 0 0 0
1120 3 14.433229048159461 3.5454984428340808 25.486144975297957 0 0 0
96 1 22.885133676950634 2.952416265004898 26.35519534948582 -1 0 0
83 1 20.04592815518492 0.28124915993091326 25.243402260904475 -1 0 0
1052 3 19.709168545530193 3.1801442747866573 25.680063651663733 -1 0 0
185 1 1.4482317859104494 6.326393234111229 26.124578387351285 0 0 0
1086 3 2.1528084869762827 9.151888065785814 26.234227641458755 0 0 0
364 1 8.025303204362146 8.934351264423658 23.27076164856356 0 0 0
365 1 7.931670502452194 6.248652041158224 25.939452997935973 0 0 0
366 1 4.837717426637414 8.827052705282274 25.543671894939006 0 0 0
1146 3 8.77427635946389 9.17387872129213 26.685216642081386 0 0 0
378 1 11.53517135442019 9.28388440702856 26.503048402228547 0 0 0
174 1 17.133938019819485 7.4972900074263915 25.23929289777431 -1 0 0
377 1 14.343754523382968 5.690303526248269 23.856360656796507 0 0 0
1150 3 14.377302953141314 7.853214776825081 25.993165976237034 0 0 0
172 1 20.57515027366192 8.020907599132011 23.169687068493776 -1 0 0
173 1 21.330773241280205 5.693874573605906 25.73433234659018 -1 0 0
1082 3 20.074838341257113 8.395835263081157 26.329222369607834 -1 0 0
191 1 1.569762295768471 12.615764383961322 24.395681272506174 0 0 0
371 1 7.9533865884614965 12.33428300258357 25.46049977426965 0 0 0
892 2 4.953865091090516 11.3453438480204 23.36344066975409 0 0 0
896 2 11.187007191581683 11.546763113107387 23.710085953387946 0 0 0
383 1 13.25021021841455 12.791081982087219 26.622961297161996 0 0 0
376 1 14.331047203812735 9.843686196173806 23.455807773975675 0 0 0
1187 3 17.445231236624092 12.908361212310565 27.304810517023622 -1 0 0
186 1 22.333445303708505 10.125419678880702 27.466910259563793 -1 0 0
832 2 22.323897720362524 10.919556949636066 23.49104916209651 -1 0 0
179 1 19.14945508370696 11.649619698386573 25.11617078590542 -1 0 0
89 1 3.4835958160133065 18.28334486148779 25.925906585897657 0 -1 0
190 1 2.8032699659193985 15.907248584557177 23.126363422061566 0 0 0
1088 3 2.536268521847285 14.432181014444149 26.309897437843404 0 0 0
269 1 7.982270494633571 18.311984704426113 25.969580691237926 0 -1 0
370 1 6.65062461210222 15.42342541332819 23.407029205523557 0 0 0
372 1 5.846492937016888 14.8206726200653 27.054806038503063 0 0 0
1148 3 8.32986699824844 15.243611133803341 25.635311630781818 0 0 0
384 1 10.05725175724857 15.135754248824677 23.321370398458434 0 0 0
1152 3 12.24823447008415 15.162990628728991 25.463901332983188 0 0 0
674 1 13.580551110089914 17.741293814278183 26.120007924647574 0 0 0
180 1 17.068493831313464 14.992990309249349 25.48885949976124 -1 0 0
994 2 17.391822189438752 18.119119076794306 27.563709045467746 0 0 0
192 1 22.925904145896286 15.144738597151026 26.670658235661524 -1 0 0
178 1 22.23064606240538 14.600453465215137 23.10533090806146 -1 0 0
1084 3 20.37068224450246 15.094033904782073 25.37261028608721 -1 0 0
399 1 20.590780674790732 17.98940639139419 25.922940506072546 -1 -1 0
1054 3 3.237489794582572 21.090177388698272 24.95683409739616 0 -1 0
270 1 6.005983175165224 21.616443705830683 25.40486666730069 0 -1 0
1114 3 8.984513582336918 21.07330924559411 25.756339885511224 0 -1 0
282 1 11.754745746061472 20.842799479521222 25.45670684869849 0 -1 0
1118 3 14.022678274940137 21.990013261038637 26.372809518929774 0 -1 0
281 1 14.12357840780529 21.620792422951016 23.18373827292872 0 -1 0
78 1 16.70681032434387 20.167354848417148 25.317467640664596 -1 -1 0
90 1 22.690669071348204 20.976267724806394 25.119736214776417 -1 -1 0
1050 3 19.86902313014118 20.734215459419087 25.456299582126857 -1 -1 0
1153 3 21.915557179568765 23.440687889035118 27.34871848349086 -1 -1 0
386 1 2.1517809620544943 2.735419467560341 28.998411812809895 0 0 0
600 1 7.9530819682741205 3.463486279136156 28.538407208689655 0 0 0
1219 3 6.485309925878302 0.9852987346327569 29.732118208111295 0 0 0
393 1 5.135114643017004 3.425846225618733 30.806930458709264 0 0 0
579 1 6.736331029431065 0.7005678129252874 32.320010006417576 0 0 0
595 1 11.230909843595233 0.7000302141560888 31.95879351900699 0 0 0
997 2 11.23328056415495 1.957162630804375 28.599167849572375 0 0 0
597 1 12.544208759284073 4.293666159540221 30.70444678228422 0 0 0
583 1 16.142024812813457 1.3110000992818214 30.867596837998835 0 0 0
408 1 17.844522320463863 3.1271756620811497 28.33378515409516 -1 0 0
1155 3 18.099040152550334 0.3096890916140164 29.076186444982614 -1 0 0
388 1 20.738348775670538 1.7330313360188458 29.10131814998637 -1 0 0
500 1 2.382710292369496 8.113050077833304 29.393939100721234 0 0 0
898 2 4.752729768122699 5.529018580884642 28.60201326768961 0 0 0
687 1 9.010190658768025 7.709501340596497 29.098212959106885 0 0 0
578 1 13.509629371363104 6.198082146475462 27.872307717861897 0 0 0
1249 3 12.4600695827441 8.158553309116908 29.613783456175945 0 0 0
962 2 16.509974125611823 5.955324874669528 29.491383442499654 0 0 0
692 1 14.80851151522535 9.326500022448004 28.602447894307485 0 0 0
686 1 18.12923736552995 8.122635532706248 31.869242914450474 0 0 0
688 1 14.215848696767253 7.847061487094282 31.645512411865326 0 0 0
933 2 23.066994133079525 5.033240360093513 29.195205059986783 -1 0 0
495 1 21.56721221879667 6.45175551317722 32.031431006417684 -1 0 0
493 1 20.13741240770612 6.622116485077532 28.592984314918624 -1 0 0
1185 3 20.939346051002538 8.523880247997944 30.320431605404234 -1 0 0
487 1 4.223521758908426 13.726196220375947 31.096358575789125 0 0 0
482 1 2.422779379720926 11.68930039748444 28.18733828274009 0 0 0
1189 3 3.8528826985595015 10.132560640822986 30.403557667663662 0 0 0
494 1 5.935723184959063 9.827355216361159 28.33329732373455 0 0 0
1251 3 7.035799837061803 12.664217659718462 29.229438528143504 0 0 0
675 1 6.928881009567976 11.280915101261092 32.19107928752129 0 0 0
685 1 9.826246553983665 12.4792643940923 29.463687793690614 0 0 0
676 1 13.577268745377697 11.632531668081633 31.00184200082937 0 0 0
1255 3 12.747359496731146 13.770674913843287 29.61290041506743 0 0 0
679 1 15.75614499997944 14.08688780273773 29.523425715288912 0 0 0