LAMMPS data file via write_data, version 29 Sep 2021, timestep = 1000

640 atoms
3 atom types

0 41.7368 xlo xhi
0 19.162 ylo yhi
0 35.522 zlo zhi
0 0 0 xy xz yz

Masses

1 132.905
2 126.9
3 204.199

Atoms # atomic

1 1 4.109756639621575 1.376754570555008 11.636761136571993 0 0 0
2 1 1.0635465351791538 3.6038217525472365 2.9643445696474098 0 0 0
3 1 6.2248696130518075 3.703418174552628 5.807419955181161 0 0 0
4 1 9.304393400622807 1.337540179942568 14.739351601654588 0 0 0
5 1 4.29653596683383 1.375860130128362 29.90754073071384 0 0 0
6 1 1.0871579829612126 3.6056414732763074 20.156098240582118 0 0 0
7 1 6.27795783049951 3.5788496149084197 23.32452076096385 0 0 0
8 1 9.336484904247339 1.5047189837288948 32.62958293024606 0 0 0
9 1 4.508860446382334 6.044259497010909 11.65721819839222 0 0 0
10 1 0.964157628378059 8.099562979575913 3.110356588711873 0 0 0
11 1 6.266518372296166 8.491453171168033 5.9977961875425985 0 0 0
12 1 9.135108198901122 6.327479326219201 14.486038365675702 0 0 0
13 1 4.29943135412304 5.704791650924892 29.38468292352732 0 0 0
14 1 1.2176626041333882 8.2247874905605 20.85181145457603 0 0 0
15 1 6.33930767299742 8.278662861654473 23.791898347054282 0 0 0
16 1 9.873006046359066 5.7858574048098905 32.40625901383356 0 0 0
17 1 4.085570853475508 11.232374561573328 11.898460151126635 0 0 0
18 1 1.280753217489828 13.166075546284773 2.9016430626076173 0 0 0
19 1 6.54638985998093 13.60657202867648 5.558969688200852 0 0 0
20 1 9.587593373704115 10.866926793458909 14.87472160631997 0 0 0
21 1 4.355883857640634 10.846374125509428 29.430218604859384 0 0 0
22 1 0.4075128085298735 13.253338692515808 21.23083178767545 0 0 0
23 1 6.0041777309956545 13.203795931277797 23.467095589649393 0 0 0
24 1 9.683705916437514 10.655148636713315 32.39531790861401 0 0 0
25 1 4.13529506167529 15.601873895965722 11.891776516031795 0 0 0
26 1 0.6744115762349221 18.167355992339697 2.8047694295104244 0 0 0
27 1 6.312786770960107 17.98810775686458 5.564015289399186 0 0 0
28 1 9.396384015363987 15.930061424791116 14.723733688278184 0 0 0
29 1 4.3644685168830195 15.744771468773996 29.691280518239445 0 0 0
30 1 0.8635126643369404 18.546070452500683 20.72449639454592 0 0 0
31 1 6.124282691208934 17.867698467118053 23.75578706287602 0 0 0
32 1 9.259809482746263 15.77505293202804 32.42679713734135 0 0 0
33 1 14.785878138651839 0.9135983618170397 11.968278233091572 0 0 0
34 1 11.605053954686865 3.837664901689608 2.9836333367884267 0 0 0
35 1 16.53151497155134 3.5278742697594017 6.110336268427119 0 0 0
36 1 20.338806790028436 1.468407588216615 14.627675572972825 0 0 0
37 1 15.001024381596777 1.5558682535016213 29.261856858654518 0 0 0
38 1 11.327873351196008 3.799636566536196 21.011270835750725 0 0 0
39 1 16.3642701079794 3.848741687734989 23.662817112656267 0 0 0
40 1 19.862078343931117 1.2180839204091116 32.728746835852526 0 0 0
41 1 14.406701319359628 6.12489219643864 11.896775360777212 0 0 0
42 1 11.197209988014619 8.601763275324403 3.4397883250778367 0 0 0
43 1 16.64615945627753 8.655755651753974 6.041235750496923 0 0 0
44 1 19.81803291519799 6.034755937930385 14.719735456443109 0 0 0
45 1 14.965887857944978 5.998301939896956 29.7021766200605 0 0 0
46 1 11.318339041090779 8.776346770059103 21.118600851767578 0 0 0
47 1 16.34380323384955 7.987624574205628 23.337389986374784 0 0 0
48 1 20.268338240462896 6.012658949808944 32.790173366644346 0 0 0
49 1 14.685454810566743 11.117552582538499 11.819689443384027 0 0 0
50 1 11.220571218154179 13.138872065546051 2.9776970224999193 0 0 0
51 1 16.549618048634645 13.17890022858076 6.0136273288814435 0 0 0
52 1 19.436391289129716 10.892048275753405 14.484040908588382 0 0 0
53 1 14.718579956825916 10.758291755071363 29.8062521060324 0 0 0
54 1 11.200898765628944 12.954051906135001 20.478362056512516 0 0 0
55 1 16.8327017465383 13.055307888370592 23.53213755679426 0 0 0
56 1 19.851214633197728 10.765120757830752 32.72222112160825 0 0 0
57 1 14.384212344893367 15.753620042114772 12.272698812660742 0 0 0
58 1 11.345768362458633 18.378007978621078 3.385032950472078 0 0 0
59 1 16.51943942403736 17.76711454033474 5.911165870561643 0 0 0
60 1 19.900145377232754 15.62852704236474 14.746625030045958 0 0 0
61 1 14.8707817253454 15.583576097778735 29.84282884020554 0 0 0
62 1 11.109721736104742 17.850544457930695 20.8949292713258 0 0 0
63 1 16.30872405983182 17.873247098763933 23.824711727813806 0 0 0
64 1 19.904880576473698 15.590256257461006 32.65315192932257 0 0 0
65 1 25.27398506152846 0.9787859325853135 12.103783151340771 0 0 0
66 1 21.665993890225092 3.1848881781062803 3.425561263376001 0 0 0
67 1 26.987056227883773 3.5206734014976724 6.17645947381942 0 0 0
68 1 30.405179553225857 1.1265014555147623 15.090999441157221 0 0 0
69 1 24.78811142795906 1.517168235102649 29.647096459391793 0 0 0
70 1 21.150934506721768 3.470635306991074 20.59014831659979 0 0 0
71 1 27.163889755865505 3.5650275359436314 23.376573912226235 0 0 0
72 1 30.47122573271656 0.7897211061999893 32.78016307369316 0 0 0
73 1 24.861290729511317 5.853494350538861 11.894170164535991 0 0 0
74 1 21.862005472651816 8.221723470421498 2.992566978635419 0 0 0
75 1 26.44409203003526 8.311784808764083 6.290068482601895 0 0 0
76 1 30.2390547780754 6.076573022862394 14.761411056971404 0 0 0
77 1 25.230973839408428 5.610505157886128 29.59799423177886 0 0 0
78 1 21.645591858327627 8.432608123042051 20.694258567800254 0 0 0
79 1 26.929775770399413 8.505558004312318 23.208397033454894 0 0 0
80 1 30.10371859165591 6.036214782786741 32.00028278363697 0 0 0
81 1 25.02907482494404 10.799214412569166 12.044354662759536 0 0 0
82 1 21.512919490098803 13.192182323712538 3.2543578717941846 0 0 0
83 1 26.96285422092412 13.28780186839513 5.879933506093265 0 0 0
84 1 30.526693829346137 10.777132348378647 14.764236461100326 0 0 0
85 1 25.129036020185293 11.062035451989889 29.915939422203614 0 0 0
86 1 21.641104579487273 13.233018059951696 20.50958995719183 0 0 0
87 1 26.928723281477456 13.518206686365302 23.43729208836673 0 0 0
88 1 29.92106817932819 11.014647076595768 32.19476953666477 0 0 0
89 1 24.923315200381086 15.158095176709844 11.893568902056344 0 0 0
90 1 21.966347023947446 17.811384017815595 2.9032180252215882 0 0 0
91 1 26.88669987643487 17.98752145814649 5.748880833778382 0 0 0
92 1 30.418533781198313 15.686026037999625 14.70077363046986 0 0 0
93 1 24.796151666000995 15.781255510032636 29.682768890340196 0 0 0
94 1 21.57550017684242 18.204453383645543 20.924270520989634 0 0 0
95 1 27.05134037365333 18.023692170399116 23.30920969253518 0 0 0
96 1 30.160517330086396 15.519181390583542 32.26901247294378 0 0 0
97 1 35.45233066909862 1.386803777987396 11.972284503306595 0 0 0
98 1 31.935395881818476 3.642246914203873 3.344756445452678 0 0 0
99 1 37.40364989910206 3.602143400568924 5.962706613273173 0 0 0
100 1 40.85291207604161 1.328027779662258 14.370839762912242 0 0 0
101 1 35.28223424751977 1.1238036574794097 29.76421342513861 0 0 0
102 1 32.21144063028575 3.566041934034772 20.62948953783626 0 0 0
103 1 37.39308194567384 3.512059709383694 23.344868630690684 0 0 0
104 1 40.765832382109075 1.0772096574163676 32.75369565058236 0 0 0
105 1 35.692370492703795 5.793936663916105 12.108698828513985 0 0 0
106 1 31.842458973129332 8.043664890342288 3.178259227057607 0 0 0
107 1 37.60893369319024 8.315329476268124 5.981019762211483 0 0 0
108 1 41.0997721084338 6.263932644269077 14.130673493980566 0 0 0
109 1 35.70239596774607 5.893620631027484 29.852188106000572 0 0 0
110 1 32.349702426963226 8.20477804583559 20.694930559096196 0 0 0
111 1 37.28037240500248 8.353608875486769 23.524378549141357 0 0 0
112 1 40.95298035569394 6.148468512815119 32.28529341793906 0 0 0
113 1 35.60130676557003 10.658206770212512 11.722682303353821 0 0 0
114 1 32.117860406733165 12.81106341135668 2.993226038987931 0 0 0
115 1 37.60448949807336 12.799373322890348 5.657592125960084 0 0 0
116 1 41.35623315141975 10.852041790400381 14.880453820258358 0 0 0
117 1 35.32640031065356 10.710953095702257 29.342301300893563 0 0 0
118 1 32.17042633654062 12.882236429449213 20.374940861334398 0 0 0
119 1 37.41370121027952 13.105373682640987 23.601459409416638 0 0 0
120 1 40.74387870275669 10.891177408391876 32.671354353261584 0 0 0
121 1 35.13831430013691 15.628577513431752 12.020782837354576 0 0 0
122 1 32.17386907808658 17.987604614445996 3.307758484146097 0 0 0
123 1 37.34809469565783 17.831663709514853 5.897494797896153 0 0 0
124 1 40.75886265774543 15.328124707981607 14.454692178093541 0 0 0
125 1 35.75859369020023 15.3886207390955 29.527845194860248 0 0 0
126 1 32.204932692906105 18.008489726068564 20.79902329452939 0 0 0
127 1 37.22145430616273 17.87198079707514 23.479527171019946 0 0 0
128 1 40.794750645764346 15.377398432873504 32.65263552776149 0 0 0
129 2 1.6541712758597702 1.3361385171607132 0.22529758801593053 0 0 0
130 2 3.384635157475681 3.5348978499457275 8.75129680559684 0 0 0
131 2 8.674964318039432 3.3741698950066437 17.903970511037738 0 0 0
132 2 6.958650158205299 1.2336592976438387 8.813970205519846 0 0 0
133 2 3.521413532500721 1.149900795818834 5.032245018006336 0 0 0
134 2 2.168430304838504 3.7852646721775307 13.646493593030597 0 0 0
135 2 7.492765968524336 3.673109916019976 12.378722324233669 0 0 0
136 2 8.622261158904411 1.5707622050733279 3.9167718234602535 0 0 0
137 2 0.28308745486723086 0.9649650198539138 10.699420515469807 0 0 0
138 2 4.717512725413179 3.6903033147926445 2.0646237863894674 0 0 0
139 2 10.437712737309774 3.6655921623615417 6.770169899089892 0 0 0
140 2 5.704581188662761 1.4014055792185094 15.836381853138205 0 0 0
141 2 1.9599965309868022 1.30351320518638 17.74309148637428 0 0 0
142 2 3.5569333351456702 3.409243807751105 26.325207745270156 0 0 0
143 2 8.856123679121021 3.725592812435379 0.10227166998288076 0 0 1
144 2 6.852985531641645 1.1606654318855332 26.649659074323996 0 0 0
145 2 3.3427606218076833 1.133520319289578 22.79432114272331 0 0 0
146 2 1.8500802692098592 3.0961364067903103 31.99503066211898 0 0 0
147 2 7.235906485790557 3.529426224822745 30.537734672106218 0 0 0
148 2 8.206979290530407 1.2251730607900997 21.472697079577753 0 0 0
149 2 0.11834274019739903 1.1761051060842824 28.62865141048527 0 0 0
150 2 4.861696802596332 3.6953127547884317 19.510672915107275 0 0 0
151 2 10.065411871257089 3.372401930139212 24.559009470037388 0 0 0
152 2 5.78049348143736 1.205248496892595 33.789873190066935 0 0 0
153 2 1.7757220737047676 6.123424025057161 35.22408815329561 0 0 -1
154 2 3.7723180696999834 8.574588029327924 8.740376380950629 0 0 0
155 2 8.781707051409263 8.27261378640302 17.887127214977923 0 0 0
156 2 7.06144174202403 6.251453995710145 8.79831607134513 0 0 0
157 2 3.386540748344936 6.222157425280713 5.203517200151642 0 0 0
158 2 2.528054452123097 8.487731257935526 14.024233981009738 0 0 0
159 2 6.982513635086833 8.601224120871523 12.80458334281061 0 0 0
160 2 8.55519644001328 6.293916378688365 3.7649820650741566 0 0 0
161 2 0.9199612791019807 6.63689811332393 10.759919513634873 0 0 0
162 2 4.921479748802651 8.577104586230387 1.8683526822354357 0 0 0
163 2 10.37623440993588 8.311129262679513 7.1498464031151086 0 0 0
164 2 5.657916920589004 6.074123943519102 15.781440120668089 0 0 0
165 2 1.3472916656545997 6.0250808526959645 17.463349387917017 0 0 0
166 2 3.69901907482581 8.222705155069415 26.41648699153621 0 0 0
167 2 8.766231907555037 8.084273905369944 35.45043817136826 0 0 0
168 2 7.002429103684122 5.897446589426535 26.585687153178032 0 0 0
169 2 3.3226382405400376 5.816920323647866 23.065078885312655 0 0 0
170 2 2.1079036732353313 8.964958910116414 31.60311549239809 0 0 0
171 2 7.016554613422147 8.163719892677447 30.326754290086892 0 0 0
172 2 8.452244909084552 5.973630032147049 21.638803049616598 0 0 0
173 2 0.2365734003707671 5.854683316723038 28.99158717034274 0 0 0
174 2 4.810670466458609 8.031428381983861 20.085270984563277 0 0 0
175 2 10.104772025163863 8.453770437012022 24.476001522162328 0 0 0
176 2 5.606666617082557 5.731178708012552 33.43830397731415 0 0 0
177 2 2.1043885399403197 10.641946354103176 35.47691069419167 0 0 -1
178 2 3.639623556389944 13.190169107061456 8.893288339378818 0 0 0
179 2 8.390923104682063 13.010987727201234 17.6785991668554 0 0 0
180 2 7.315973909869304 10.846417147175732 8.837627657592808 0 0 0
181 2 3.8904666457548847 11.192704098256879 5.1558705594503005 0 0 0
182 2 2.160931120328874 13.249100345993805 14.298734840602448 0 0 0
183 2 7.194514652306848 13.374584296738574 12.971796365717452 0 0 0
184 2 8.42879923505167 10.767985250246797 3.8962184085517317 0 0 0
185 2 0.5384336936446921 10.853180678635168 10.797778266292726 0 0 0
186 2 5.3587549064261255 13.239353188212355 1.7819659553812062 0 0 0
187 2 9.935525387554485 13.194640873923287 7.06851277939741 0 0 0
188 2 5.642207441676785 10.955215033382723 15.741310322992605 0 0 0
189 2 1.801459044252025 10.76475750775261 17.984564391191174 0 0 0
190 2 3.785392862222785 13.419682814544188 26.85082021562907 0 0 0
191 2 9.011386702818914 12.993197673497175 35.283188018514515 0 0 0
192 2 6.918725378137089 10.848246945154202 26.32471533237216 0 0 0
193 2 3.1610113084296505 10.912399572546784 22.79452331318479 0 0 0
194 2 1.9956867352243832 13.107638869614709 31.57046051518357 0 0 0
195 2 7.048348799118505 12.839052151209343 30.66770766554258 0 0 0
196 2 8.284983866641578 10.785398666171945 21.50549693771398 0 0 0
197 2 0.1893194489390735 10.497386243686595 28.491498261033986 0 0 0
198 2 4.823457476849864 13.033502871703455 20.044536874870648 0 0 0
199 2 10.070850466175376 13.102124503213359 24.689000828911453 0 0 0
200 2 5.764553169099893 10.53575213471413 33.19622551777951 0 0 0
201 2 1.880302668887539 15.345562027569912 0.16662380685196077 0 0 0
202 2 3.2790636534839157 18.256654973186787 8.8658564162269 0 0 0
203 2 8.753889577295235 17.857838929828812 17.640604346177643 0 0 0
204 2 6.808385723912705 15.790473646354577 8.78549319331586 0 0 0
205 2 3.2553968910182394 15.695574324682264 5.100341479313092 0 0 0
206 2 1.7645710847696194 17.814619413008575 14.076427749594837 0 0 0
207 2 7.023923291984983 17.934040725180736 12.550073896694895 0 0 0
208 2 8.664760393939458 15.920418743205591 3.6835967127630687 0 0 0
209 2 0.4475400666723662 15.601504143895296 10.661064823206624 0 0 0
210 2 5.334930857624148 17.63065460412632 1.9435737018326316 0 0 0
211 2 10.075378716531453 18.25556645244839 6.764272676496432 0 0 0
212 2 5.433481671033883 15.52578450466147 15.82055213476563 0 0 0
213 2 1.845444066429431 15.53494249723365 17.992141167106727 0 0 0
214 2 3.2437200660980063 17.820476812474745 26.9228302455192 0 0 0
215 2 8.795974107457955 18.241930148765753 35.47433488705102 0 0 0
216 2 7.093404259123211 15.756501295145835 26.966834462674925 0 0 0
217 2 3.1312563027222513 15.658247531257135 22.990284465695222 0 0 0
218 2 1.7943240143978905 17.812580857783576 31.985702820327266 0 0 0
219 2 6.878391793118238 18.15309580017809 30.456270414766994 0 0 0
220 2 8.349380834616573 15.60296262853649 21.712162587753706 0 0 0
221 2 0.04280800304134652 15.642398995968868 28.72455848350692 0 0 0
222 2 4.792424211348492 17.865014008633562 19.9772402344135 0 0 0
223 2 10.110694481781964 18.159998793626837 24.699580390488986 0 0 0
224 2 5.700686445386028 15.669802800791986 33.540469084742355 0 0 0
225 2 12.354490387356613 1.2415272218373348 0.028871891309103722 0 0 0
226 2 14.183679635303251 3.5133081769237937 9.149499756536027 0 0 0
227 2 18.8694490180169 3.2443922453467415 17.29691792170125 0 0 0
228 2 17.137280036373454 1.084916314444388 8.948570087038009 0 0 0
229 2 13.781452758357293 1.1701425528028044 4.934521035688128 0 0 0
230 2 12.113887487412898 3.9388929165731863 13.861358119911024 0 0 0
231 2 17.56529741168534 3.7185080930732233 12.850940678900015 0 0 0
232 2 18.520176430542822 0.8939876196801994 3.8749962705241763 0 0 0
233 2 10.873229287749508 1.3012091081602646 10.710553726806088 0 0 0
234 2 15.157631621113357 3.714530934945968 2.2539866266257254 0 0 0
235 2 20.29983764168026 3.286437828986517 7.031332329683709 0 0 0
236 2 15.70231982303105 1.390241003634443 15.457599750319863 0 0 0
237 2 12.158366212607472 1.5433636366232188 17.954637930379185 0 0 0
238 2 13.840860052804143 3.778104301909645 26.628558631759095 0 0 0
239 2 19.157253426408513 3.654570870751559 0.22954848323869317 0 0 1
240 2 17.63052340053757 1.2114703377084841 26.585132130636502 0 0 0
241 2 13.61000311435603 1.2886982955592245 22.935740530768648 0 0 0
242 2 12.618438642308655 3.6082242451691204 31.561730703975993 0 0 0
243 2 18.25530581102398 4.084698438546753 30.403458072380317 0 0 0
244 2 18.355897738712585 1.272782116337091 21.68841290975983 0 0 0
245 2 10.807237546287498 1.3491705332768593 28.9039574543 0 0 0
246 2 15.109520641420005 3.860868070995549 19.733846416404408 0 0 0
247 2 20.42468104674902 3.412491021319066 24.581693859381325 0 0 0
248 2 15.9931511669367 1.0580780411367803 33.294479556463884 0 0 0
249 2 12.239796999016946 6.018265091256687 0.025854833275345834 0 0 0
250 2 14.30764309458758 8.632237849143213 9.00512374294748 0 0 0
251 2 18.869487472818918 8.595234255790196 17.626497475951837 0 0 0
252 2 17.45357149312538 6.068569367737174 9.052472272261936 0 0 0
253 2 13.871164079786954 6.17149529732022 5.027411214762013 0 0 0
254 2 12.603945180438547 8.629957389548034 13.908889771153978 0 0 0
255 2 17.576816715857927 8.318827164249956 12.478087699188604 0 0 0
256 2 18.988876453903618 5.764911664821385 3.7961011759331145 0 0 0
257 2 10.781311679292687 6.085671049000901 10.897561303561705 0 0 0
258 2 15.16095042854527 8.433346780924229 2.269919700579929 0 0 0
259 2 20.293367822392103 8.140069268476928 6.911656088300821 0 0 0
260 2 16.075763552929423 6.162837627136188 15.619962101796052 0 0 0
261 2 12.000434576832532 6.196905302188856 17.9389561253639 0 0 0
262 2 13.6998705338139 8.4225319634159 26.639547434390458 0 0 0
263 2 18.852681059980753 8.33826254384969 0.20994092269686637 0 0 1
264 2 17.364494898075925 6.1910148283845166 26.500393405931263 0 0 0
265 2 13.390705852966748 6.109332990660274 22.843733375162273 0 0 0
266 2 12.704934745508012 8.096707239249657 31.725921745605866 0 0 0
267 2 17.7191554555984 8.403687701311515 30.143001718078775 0 0 0
268 2 18.682053523508245 5.808196670170325 21.365760245421143 0 0 0
269 2 10.528544611263838 5.90768264426147 28.789975902022228 0 0 0
270 2 15.151648403206861 8.327841058180695 19.837120723805064 0 0 0
271 2 20.54113006262895 8.391679021181917 24.30824026752853 0 0 0
272 2 16.3133087355827 5.734013351776439 33.563676141260956 0 0 0
273 2 11.989974792357511 10.398552468772342 35.4865150995564 0 0 -1
274 2 14.181609982159593 13.282784831972453 8.786567474621805 0 0 0
275 2 18.791961041075957 13.248042661490585 17.44638856074294 0 0 0
276 2 17.612634808994798 10.857190238674374 9.010151083234744 0 0 0
277 2 13.826595599591048 10.990540844279549 5.360281900076643 0 0 0
278 2 12.337497880610115 13.336935590211436 14.09123943220813 0 0 0
279 2 17.070661863211484 13.403161265142916 12.847080605816199 0 0 0
280 2 18.668623947820628 10.678736860114629 3.8898834157194755 0 0 0
281 2 10.725566614898243 11.276610578688377 11.077960369995125 0 0 0
282 2 15.114613583859624 13.233373639809892 2.258329855466201 0 0 0
283 2 20.36583254678802 12.996551404915458 7.04414999066049 0 0 0
284 2 15.987913885776955 10.667915572157748 15.600546942271222 0 0 0
285 2 12.419743146737718 10.872950362960383 17.883572385968026 0 0 0
286 2 13.994997101628204 13.034242737587462 26.916625633962987 0 0 0
287 2 19.23359086317589 13.041942633288892 0.28329052382567604 0 0 1
288 2 17.327915951425673 11.04729793521587 26.68886175700513 0 0 0
289 2 14.018051268681766 10.72496651058893 22.888366229018402 0 0 0
290 2 12.281587445826728 13.161230606887994 31.824829589068315 0 0 0
291 2 17.786627963354167 13.376185633343706 30.408924321989264 0 0 0
292 2 18.67263354993579 10.642582052227096 21.230237995095564 0 0 0
293 2 10.64015916791037 10.949374569859355 28.556572970035354 0 0 0
294 2 14.932837429377384 13.654503274260009 19.90466364718619 0 0 0
295 2 20.37708232230676 12.944297514934181 24.611418639682228 0 0 0
296 2 16.255761112216717 10.720952311804258 33.54393961491682 0 0 0
297 2 12.124201518724693 15.638646225420825 35.438690747897205 0 0 -1
298 2 13.997362775951215 17.93802200775322 8.818005740144715 0 0 0
299 2 19.208433083313583 18.260581594776855 17.959030780110382 0 0 0
300 2 17.471481612557483 15.616575756381746 8.872857414357178 0 0 0
301 2 13.340237325138597 15.460745134034674 5.37315667468799 0 0 0
302 2 12.198927912700954 18.11537436071457 14.029710202354737 0 0 0
303 2 17.94357682522373 17.971989499390332 12.669284968366698 0 0 0
304 2 18.617839974165385 15.62590815602913 3.8770533703326606 0 0 0
305 2 10.705397086718614 15.578238634251617 11.111580346069342 0 0 0
306 2 15.108610558196917 17.682125850102775 1.962730347247453 0 0 0
307 2 20.340265467705162 17.834447433011764 6.625875624952834 0 0 0
308 2 15.704092896039121 16.069244597029257 16.09708354356183 0 0 0
309 2 11.893973337292037 15.521250595849162 17.61203706150281 0 0 0
310 2 14.11053270112349 17.835893084566404 26.921523895064286 0 0 0
311 2 18.892943073951308 17.865548933850203 0.23556734193873405 0 0 1
312 2 17.307257525265168 15.534586850477226 26.93987717281005 0 0 0
313 2 13.289707594940477 15.334185680209988 22.990000393314503 0 0 0
314 2 12.381177421323951 17.856372948767078 31.590474349057814 0 0 0
315 2 17.754056677890382 18.116419755406223 30.411911033721758 0 0 0
316 2 18.858990381394847 15.526923359907473 21.523212554356935 0 0 0
317 2 10.888125604008668 15.371924750178772 28.948000605175007 0 0 0
318 2 15.122308189678098 18.21595633592516 19.9180710056693 0 0 0
319 2 20.400800890698232 17.690776565336595 24.626934469923366 0 0 0
320 2 15.843559524349274 15.478448431138508 33.320703674214215 0 0 0
321 2 22.728345429303705 1.0669293414813725 35.507844085576224 0 0 -1
322 2 24.138075522491853 3.5359116762548375 8.865087263478197 0 0 0
323 2 29.887702027006487 3.3889594439258737 17.6857105435007 0 0 0
324 2 27.522919930988444 1.0913360158658314 8.901051191779933 0 0 0
325 2 23.911316735993505 1.043636434812464 5.200081331929397 0 0 0
326 2 23.05693040490052 3.380142245561303 13.71382667737243 0 0 0
327 2 27.86965609314798 3.5763213687765445 12.741826778760267 0 0 0
328 2 28.978971951291648 1.2828788025839273 3.9049400203058227 0 0 0
329 2 21.341823365384357 1.040621290124843 11.049147486196693 0 0 0
330 2 26.025216494973208 3.6095843260903595 1.9086254986106386 0 0 0
331 2 30.940331697832253 3.476754556758602 7.228966711598075 0 0 0
332 2 26.664954398127495 0.9298491454632385 15.817584354547241 0 0 0
333 2 22.595172692317195 1.1711502122265498 17.841842975355313 0 0 0
334 2 24.53741917835885 3.565395933831591 26.30227508294147 0 0 0
335 2 29.840386684878837 3.6934175200672117 0.012627101052321826 0 0 1
336 2 27.56802791335357 1.2009006271936935 26.180880473366983 0 0 0
337 2 23.92373423700948 1.33266713611939 22.53935404955485 0 0 0
338 2 22.94760583391955 3.6739401186364695 31.849548309517214 0 0 0
339 2 27.987973493417098 2.910174597566545 30.239575274620282 0 0 0
340 2 29.271300843824264 1.1966893935936105 21.395942783193778 0 0 0
341 2 21.115525233652992 1.28728046673032 28.497653680194915 0 0 0
342 2 25.76525839083223 3.5322582352331984 19.67823199296597 0 0 0
343 2 30.930988441865 3.867799338499509 24.587655128800936 0 0 0
344 2 26.671498731981764 1.1976173166429145 33.44021907776013 0 0 0
345 2 22.779962758328637 5.580904148966789 0.42083085722627356 0 0 0
346 2 23.715565237416012 8.426617254185823 9.487077327605258 0 0 0
347 2 29.87721959999986 8.510227250957012 17.394162364506585 0 0 0
348 2 27.480478872699166 5.931826153702799 9.008786805906627 0 0 0
349 2 23.858936474772012 5.536494408100645 5.119980586189968 0 0 0
350 2 22.84553215833146 8.293601142348361 13.999850189638808 0 0 0
351 2 28.1095171719713 8.521931518954812 12.815019393822903 0 0 0
352 2 29.06704082063598 6.064592124844408 4.231436669228715 0 0 0
353 2 21.109102605870838 5.595619168227619 11.019716661701699 0 0 0
354 2 25.849707772107433 8.107953259756778 2.422590508557999 0 0 0
355 2 31.030533075894237 8.108269954206099 7.170021833560037 0 0 0
356 2 26.673857658002703 6.232352328519571 15.671173535493185 0 0 0
357 2 22.332968934497924 5.899428279463345 17.481057574964755 0 0 0
358 2 24.44185958904313 8.089666547525209 26.711250384548244 0 0 0
359 2 29.51684758722188 8.82435147071382 0.0040668798660180305 0 0 1
360 2 27.93088778582063 6.022392417476576 26.387005206336557 0 0 0
361 2 24.085556966664353 6.2185754855729725 22.686394300529603 0 0 0
362 2 23.01385342454311 8.059105495846387 31.93172214925553 0 0 0
363 2 27.95987104689723 8.429584431198613 30.180708249828943 0 0 0
364 2 29.440395404122 6.1495774784884345 21.356385352717044 0 0 0
365 2 21.30695576119988 6.2652668499344335 28.602929101327884 0 0 0
366 2 25.994616524700316 8.182761725880498 19.41444744846351 0 0 0
367 2 31.201325082978535 8.485289072604338 24.347068961195 0 0 0
368 2 26.53479245446673 6.084260756332563 33.54913445535799 0 0 0
369 2 22.49361633320189 10.380152482837218 0.10916436877580132 0 0 0
370 2 24.040266289014887 13.166358582476658 8.5264580074503 0 0 0
371 2 29.558015668725346 13.156396232322926 17.55181095345363 0 0 0
372 2 27.647776197007776 10.851840199273845 9.054979556738399 0 0 0
373 2 24.203216938328925 10.897541377652379 5.066962012006757 0 0 0
374 2 22.851208796417275 13.082455261959455 14.295209384670036 0 0 0
375 2 28.350119046664922 13.319819640318808 12.816216357433134 0 0 0
376 2 29.040751486643195 10.704331822720386 4.160056932177614 0 0 0
377 2 21.585355826315478 11.02767723254264 10.849472591846737 0 0 0
378 2 25.549138209683043 12.999228686475348 2.1716411283994717 0 0 0
379 2 31.254848026064767 13.15742277137243 6.979666637088594 0 0 0
380 2 25.942777452518055 10.928466621521219 15.746334029355587 0 0 0
381 2 22.411889009093553 10.940793758063135 17.698901833743324 0 0 0
382 2 24.201144074547773 13.012297452521365 26.784025242535268 0 0 0
383 2 29.51864851258825 13.077405463734168 0.29531906731260676 0 0 1
384 2 27.56426682163825 10.771780542665079 26.491119788370693 0 0 0
385 2 23.99107009649624 10.911603804658506 22.698625918715468 0 0 0
386 2 22.40258317117274 13.084913736222775 32.049331970717475 0 0 0
387 2 27.554475306333742 13.44964523955819 29.983945326031986 0 0 0
388 2 29.362073810001284 10.669431228846438 21.597645009063996 0 0 0
389 2 21.388526144833737 11.033354277555352 28.752806267500823 0 0 0
390 2 25.699096526256756 13.003298024203753 20.000094266332823 0 0 0
391 2 30.936872788077764 13.270894219916151 24.50224415885251 0 0 0
392 2 26.406846847655693 10.454464766535803 33.72283622263464 0 0 0
393 2 22.70430721621598 15.353088921894452 0.22578544815368537 0 0 0
394 2 24.6091346190728 17.684600737429733 8.554090632068137 0 0 0
395 2 29.6163991185617 17.796116813821577 17.824811650761852 0 0 0
396 2 27.832034636127293 15.552200064479875 8.854717108300983 0 0 0
397 2 23.959461766659025 15.565138723024171 4.66722117342677 0 0 0
398 2 22.95100947757704 17.932444893726093 14.115585384716193 0 0 0
399 2 27.919972022499735 17.77847523193665 12.597290048658396 0 0 0
400 2 29.170593677653233 15.52266516223878 3.7494418050119824 0 0 0
401 2 21.586051190806245 15.73348818971638 10.758989776409223 0 0 0
402 2 25.873901532644588 18.040545027604754 2.163933419758195 0 0 0
403 2 31.25624814154094 17.82723322611122 7.012822627536283 0 0 0
404 2 26.32082995640308 15.665784752979594 15.96771646596128 0 0 0
405 2 22.510074599038557 15.688270538339824 17.972921873278445 0 0 0
406 2 24.372757697465 18.04409749435212 26.566267875204183 0 0 0
407 2 29.683648417169675 17.45269695323789 35.45657990785508 0 0 0
408 2 27.293617791846916 15.656852285169514 26.58713116193789 0 0 0
409 2 23.735758629633295 15.900567689175361 23.021376347124473 0 0 0
410 2 22.81484086133941 18.095762123016673 31.869730511995595 0 0 0
411 2 27.65987944005227 17.783653793570373 30.600593221794288 0 0 0
412 2 29.554504142691332 15.226707538990427 21.506684272091395 0 0 0
413 2 21.459136975633335 15.940448246292776 28.741664666707837 0 0 0
414 2 25.846638947409385 17.972154413391504 19.87873198467945 0 0 0
415 2 30.717875633333843 17.909804647303808 24.408579585039764 0 0 0
416 2 26.248515732905243 15.181465751668789 33.30394331495842 0 0 0
417 2 32.927802144352704 0.9354488326193963 0.38537911621160204 0 0 0
418 2 34.978339975194984 3.6267515928445726 9.172806771444433 0 0 0
419 2 40.170058820222344 3.4321751000872083 17.60623858943511 0 0 0
420 2 38.377105196279345 1.458976439954512 9.055338296210776 0 0 0
421 2 34.36981957326223 1.3617456756751913 5.548494134966366 0 0 0
422 2 33.094053774777365 3.790795727070534 13.91394384080616 0 0 0
423 2 38.78505387435167 3.866259781974075 12.614499620995591 0 0 0
424 2 39.825583427627436 1.332872492379686 3.6803181963536193 0 0 0
425 2 31.47252750322702 0.9672841095941419 11.15162338159574 0 0 0
426 2 36.422965890828706 3.5989016368163274 2.211291811246053 0 0 0
427 2 41.18602736902852 3.7851924917666016 6.673107078804487 0 0 0
428 2 36.90554302727429 1.4401328224762662 15.394252726823508 0 0 0
429 2 33.139167613589485 0.9916595668764383 17.74811063134262 0 0 0
430 2 34.866434040713735 3.4488440604002224 26.545588251843125 0 0 0
431 2 40.06038714612172 3.9383752878387575 35.19534548699994 0 0 0
432 2 37.924851506268716 1.0676355048202149 26.53146119011934 0 0 0
433 2 34.43571378105679 1.150833497983937 22.702553171304526 0 0 0
434 2 32.97610888556202 3.5318801468830263 31.701548733987792 0 0 0
435 2 38.60230348873013 3.5769122071264094 30.394552478000815 0 0 0
436 2 39.58805546247686 1.2964243291069932 21.241334837983285 0 0 0
437 2 31.531852564793837 0.8911116510856669 28.863837875482695 0 0 0
438 2 36.431529300293235 3.6829504278985996 19.562051971237654 0 0 0
439 2 41.52979861995002 3.178690885054826 24.361740676813017 0 0 0
440 2 36.79459429412818 1.205569216190353 33.75105797395386 0 0 0
441 2 32.51548354230339 6.262889287368448 35.35306116255657 0 0 -1
442 2 34.99016163446653 8.371894612940093 8.90031508721617 0 0 0