data.CPI (written by ASE) 

640 	 atoms 
3  atom types
0.0      41.736800000000002  xlo xhi
0.0      19.161999999999999  ylo yhi
0.0      35.521999999999998  zlo zhi
                      0                       0                       0  xy xz yz


Atoms 

     1    1            4.336870888      1.1976249999999999      11.915854900000001
     2    1    0.88022911199999998      3.5928749999999998      3.0353549000000006
     3    1     6.0973291120000006      3.5928749999999998       5.845145099999999
     4    1     9.5539708880000003      1.1976249999999999      14.725645099999998
     5    1            4.336870888      1.1976249999999999      29.676854900000002
     6    1    0.88022911199999998      3.5928749999999998      20.796354900000001
     7    1     6.0973291120000006      3.5928749999999998      23.606145099999999
     8    1     9.5539708880000003      1.1976249999999999      32.486645099999997
     9    1            4.336870888      5.9881250000000001      11.915854900000001
    10    1    0.88022911199999998      8.3833749999999991      3.0353549000000006
    11    1     6.0973291120000006      8.3833749999999991       5.845145099999999
    12    1     9.5539708880000003      5.9881250000000001      14.725645099999998
    13    1            4.336870888      5.9881250000000001      29.676854900000002
    14    1    0.88022911199999998      8.3833749999999991      20.796354900000001
    15    1     6.0973291120000006      8.3833749999999991      23.606145099999999
    16    1     9.5539708880000003      5.9881250000000001      32.486645099999997
    17    1            4.336870888               10.778625      11.915854900000001
    18    1    0.88022911199999998      13.173874999999999      3.0353549000000006
    19    1     6.0973291120000006      13.173874999999999       5.845145099999999
    20    1     9.5539708880000003               10.778625      14.725645099999998
    21    1            4.336870888               10.778625      29.676854900000002
    22    1    0.88022911199999998      13.173874999999999      20.796354900000001
    23    1     6.0973291120000006      13.173874999999999      23.606145099999999
    24    1     9.5539708880000003               10.778625      32.486645099999997
    25    1            4.336870888               15.569125      11.915854900000001
    26    1    0.88022911199999998               17.964375      3.0353549000000006
    27    1     6.0973291120000006               17.964375       5.845145099999999
    28    1     9.5539708880000003               15.569125      14.725645099999998
    29    1            4.336870888               15.569125      29.676854900000002
    30    1    0.88022911199999998               17.964375      20.796354900000001
    31    1     6.0973291120000006               17.964375      23.606145099999999
    32    1     9.5539708880000003               15.569125      32.486645099999997
    33    1     14.771070888000001      1.1976249999999999      11.915854900000001
    34    1     11.314429112000001      3.5928749999999998      3.0353549000000006
    35    1     16.531529112000001      3.5928749999999998       5.845145099999999
    36    1     19.988170887999999      1.1976249999999999      14.725645099999998
    37    1     14.771070888000001      1.1976249999999999      29.676854900000002
    38    1     11.314429112000001      3.5928749999999998      20.796354900000001
    39    1     16.531529112000001      3.5928749999999998      23.606145099999999
    40    1     19.988170887999999      1.1976249999999999      32.486645099999997
    41    1     14.771070888000001      5.9881250000000001      11.915854900000001
    42    1     11.314429112000001      8.3833749999999991      3.0353549000000006
    43    1     16.531529112000001      8.3833749999999991       5.845145099999999
    44    1     19.988170887999999      5.9881250000000001      14.725645099999998
    45    1     14.771070888000001      5.9881250000000001      29.676854900000002
    46    1     11.314429112000001      8.3833749999999991      20.796354900000001
    47    1     16.531529112000001      8.3833749999999991      23.606145099999999
    48    1     19.988170887999999      5.9881250000000001      32.486645099999997
    49    1     14.771070888000001               10.778625      11.915854900000001
    50    1     11.314429112000001      13.173874999999999      3.0353549000000006
    51    1     16.531529112000001      13.173874999999999       5.845145099999999
    52    1     19.988170887999999               10.778625      14.725645099999998
    53    1     14.771070888000001               10.778625      29.676854900000002
    54    1     11.314429112000001      13.173874999999999      20.796354900000001
    55    1     16.531529112000001      13.173874999999999      23.606145099999999
    56    1     19.988170887999999               10.778625      32.486645099999997
    57    1     14.771070888000001               15.569125      11.915854900000001
    58    1     11.314429112000001               17.964375      3.0353549000000006
    59    1     16.531529112000001               17.964375       5.845145099999999
    60    1     19.988170887999999               15.569125      14.725645099999998
    61    1     14.771070888000001               15.569125      29.676854900000002
    62    1     11.314429112000001               17.964375      20.796354900000001
    63    1     16.531529112000001               17.964375      23.606145099999999
    64    1     19.988170887999999               15.569125      32.486645099999997
    65    1     25.205270888000001      1.1976249999999999      11.915854900000001
    66    1           21.748629112      3.5928749999999998      3.0353549000000006
    67    1     26.965729112000002      3.5928749999999998       5.845145099999999
    68    1     30.422370888000003      1.1976249999999999      14.725645099999998
    69    1     25.205270888000001      1.1976249999999999      29.676854900000002
    70    1           21.748629112      3.5928749999999998      20.796354900000001
    71    1     26.965729112000002      3.5928749999999998      23.606145099999999
    72    1     30.422370888000003      1.1976249999999999      32.486645099999997
    73    1     25.205270888000001      5.9881250000000001      11.915854900000001
    74    1           21.748629112      8.3833749999999991      3.0353549000000006
    75    1     26.965729112000002      8.3833749999999991       5.845145099999999
    76    1     30.422370888000003      5.9881250000000001      14.725645099999998
    77    1     25.205270888000001      5.9881250000000001      29.676854900000002
    78    1           21.748629112      8.3833749999999991      20.796354900000001
    79    1     26.965729112000002      8.3833749999999991      23.606145099999999
    80    1     30.422370888000003      5.9881250000000001      32.486645099999997
    81    1     25.205270888000001               10.778625      11.915854900000001
    82    1           21.748629112      13.173874999999999      3.0353549000000006
    83    1     26.965729112000002      13.173874999999999       5.845145099999999
    84    1     30.422370888000003               10.778625      14.725645099999998
    85    1     25.205270888000001               10.778625      29.676854900000002
    86    1           21.748629112      13.173874999999999      20.796354900000001
    87    1     26.965729112000002      13.173874999999999      23.606145099999999
    88    1     30.422370888000003               10.778625      32.486645099999997
    89    1     25.205270888000001               15.569125      11.915854900000001
    90    1           21.748629112               17.964375      3.0353549000000006
    91    1     26.965729112000002               17.964375       5.845145099999999
    92    1     30.422370888000003               15.569125      14.725645099999998
    93    1     25.205270888000001               15.569125      29.676854900000002
    94    1           21.748629112               17.964375      20.796354900000001
    95    1     26.965729112000002               17.964375      23.606145099999999
    96    1     30.422370888000003               15.569125      32.486645099999997
    97    1     35.639470888000005      1.1976249999999999      11.915854900000001
    98    1           32.182829112      3.5928749999999998      3.0353549000000006
    99    1     37.399929112000002      3.5928749999999998       5.845145099999999
   100    1           40.856570888      1.1976249999999999      14.725645099999998
   101    1     35.639470888000005      1.1976249999999999      29.676854900000002
   102    1           32.182829112      3.5928749999999998      20.796354900000001
   103    1     37.399929112000002      3.5928749999999998      23.606145099999999
   104    1           40.856570888      1.1976249999999999      32.486645099999997
   105    1     35.639470888000005      5.9881250000000001      11.915854900000001
   106    1           32.182829112      8.3833749999999991      3.0353549000000006
   107    1     37.399929112000002      8.3833749999999991       5.845145099999999
   108    1           40.856570888      5.9881250000000001      14.725645099999998
   109    1     35.639470888000005      5.9881250000000001      29.676854900000002
   110    1           32.182829112      8.3833749999999991      20.796354900000001
   111    1     37.399929112000002      8.3833749999999991      23.606145099999999
   112    1           40.856570888      5.9881250000000001      32.486645099999997
   113    1     35.639470888000005               10.778625      11.915854900000001
   114    1           32.182829112      13.173874999999999      3.0353549000000006
   115    1     37.399929112000002      13.173874999999999       5.845145099999999
   116    1           40.856570888               10.778625      14.725645099999998
   117    1     35.639470888000005               10.778625      29.676854900000002
   118    1           32.182829112      13.173874999999999      20.796354900000001
   119    1     37.399929112000002      13.173874999999999      23.606145099999999
   120    1           40.856570888               10.778625      32.486645099999997
   121    1     35.639470888000005               15.569125      11.915854900000001
   122    1           32.182829112               17.964375      3.0353549000000006
   123    1     37.399929112000002               17.964375       5.845145099999999
   124    1           40.856570888               15.569125      14.725645099999998
   125    1     35.639470888000005               15.569125      29.676854900000002
   126    1           32.182829112               17.964375      20.796354900000001
   127    1     37.399929112000002               17.964375      23.606145099999999
   128    1           40.856570888               15.569125      32.486645099999997
   129    2     1.7030701240000001      1.1976249999999999    0.028417600000000001
   130    2     3.5140298759999999      3.5928749999999998      8.9089176000000005
   131    2     8.7311298760000007      3.5928749999999998      17.732582399999998
   132    2     6.9201701240000011      1.1976249999999999      8.8520824000000005
   133    2     3.1208692199999999      1.1976249999999999      5.1025576899999994
   134    2     2.0962307800000004      3.5928749999999998      13.983057690000001
   135    2     7.3133307800000011      3.5928749999999998      12.658442309999998
   136    2     8.3379692199999997      1.1976249999999999      3.7779423099999998
   137    2    0.33295532200000011      1.1976249999999999             10.91395689
   138    2     4.8841446780000002      3.5928749999999998      2.0334568899999996
   139    2           10.101244678      3.5928749999999998      6.8470431100000004
   140    2     5.5500553220000004      1.1976249999999999      15.727543109999999
   141    2     1.7030701240000001      1.1976249999999999              17.7894176
   142    2     3.5140298759999999      3.5928749999999998      26.669917599999998
   143    2     8.7311298760000007      3.5928749999999998      35.493582399999994
   144    2     6.9201701240000011      1.1976249999999999              26.6130824
   145    2     3.1208692199999999      1.1976249999999999             22.86355769
   146    2     2.0962307800000004      3.5928749999999998      31.744057689999998
   147    2     7.3133307800000011      3.5928749999999998      30.419442309999997
   148    2     8.3379692199999997      1.1976249999999999      21.538942309999999
   149    2    0.33295532200000011      1.1976249999999999      28.674956889999997
   150    2     4.8841446780000002      3.5928749999999998      19.794456889999999
   151    2           10.101244678      3.5928749999999998      24.608043110000001
   152    2     5.5500553220000004      1.1976249999999999      33.488543109999995
   153    2     1.7030701240000001      5.9881250000000001    0.028417600000000001
   154    2     3.5140298759999999      8.3833749999999991      8.9089176000000005
   155    2     8.7311298760000007      8.3833749999999991      17.732582399999998
   156    2     6.9201701240000011      5.9881250000000001      8.8520824000000005
   157    2     3.1208692199999999      5.9881250000000001      5.1025576899999994
   158    2     2.0962307800000004      8.3833749999999991      13.983057690000001
   159    2     7.3133307800000011      8.3833749999999991      12.658442309999998
   160    2     8.3379692199999997      5.9881250000000001      3.7779423099999998
   161    2    0.33295532200000011      5.9881250000000001             10.91395689
   162    2     4.8841446780000002      8.3833749999999991      2.0334568899999996
   163    2           10.101244678      8.3833749999999991      6.8470431100000004
   164    2     5.5500553220000004      5.9881250000000001      15.727543109999999
   165    2     1.7030701240000001      5.9881250000000001              17.7894176
   166    2     3.5140298759999999      8.3833749999999991      26.669917599999998
   167    2     8.7311298760000007      8.3833749999999991      35.493582399999994
   168    2     6.9201701240000011      5.9881250000000001              26.6130824
   169    2     3.1208692199999999      5.9881250000000001             22.86355769
   170    2     2.0962307800000004      8.3833749999999991      31.744057689999998
   171    2     7.3133307800000011      8.3833749999999991      30.419442309999997
   172    2     8.3379692199999997      5.9881250000000001      21.538942309999999
   173    2    0.33295532200000011      5.9881250000000001      28.674956889999997
   174    2     4.8841446780000002      8.3833749999999991      19.794456889999999
   175    2           10.101244678      8.3833749999999991      24.608043110000001
   176    2     5.5500553220000004      5.9881250000000001      33.488543109999995
   177    2     1.7030701240000001               10.778625    0.028417600000000001
   178    2     3.5140298759999999      13.173874999999999      8.9089176000000005
   179    2     8.7311298760000007      13.173874999999999      17.732582399999998
   180    2     6.9201701240000011               10.778625      8.8520824000000005
   181    2     3.1208692199999999               10.778625      5.1025576899999994
   182    2     2.0962307800000004      13.173874999999999      13.983057690000001
   183    2     7.3133307800000011      13.173874999999999      12.658442309999998
   184    2     8.3379692199999997               10.778625      3.7779423099999998
   185    2    0.33295532200000011               10.778625             10.91395689
   186    2     4.8841446780000002      13.173874999999999      2.0334568899999996
   187    2           10.101244678      13.173874999999999      6.8470431100000004
   188    2     5.5500553220000004               10.778625      15.727543109999999
   189    2     1.7030701240000001               10.778625              17.7894176
   190    2     3.5140298759999999      13.173874999999999      26.669917599999998
   191    2     8.7311298760000007      13.173874999999999      35.493582399999994
   192    2     6.9201701240000011               10.778625              26.6130824
   193    2     3.1208692199999999               10.778625             22.86355769
   194    2     2.0962307800000004      13.173874999999999      31.744057689999998
   195    2     7.3133307800000011      13.173874999999999      30.419442309999997
   196    2     8.3379692199999997               10.778625      21.538942309999999
   197    2    0.33295532200000011               10.778625      28.674956889999997
   198    2     4.8841446780000002      13.173874999999999      19.794456889999999
   199    2           10.101244678      13.173874999999999      24.608043110000001
   200    2     5.5500553220000004               10.778625      33.488543109999995
   201    2     1.7030701240000001               15.569125    0.028417600000000001
   202    2     3.5140298759999999               17.964375      8.9089176000000005
   203    2     8.7311298760000007               17.964375      17.732582399999998
   204    2     6.9201701240000011               15.569125      8.8520824000000005
   205    2     3.1208692199999999               15.569125      5.1025576899999994
   206    2     2.0962307800000004               17.964375      13.983057690000001
   207    2     7.3133307800000011               17.964375      12.658442309999998
   208    2     8.3379692199999997               15.569125      3.7779423099999998
   209    2    0.33295532200000011               15.569125             10.91395689
   210    2     4.8841446780000002               17.964375      2.0334568899999996
   211    2           10.101244678               17.964375      6.8470431100000004
   212    2     5.5500553220000004               15.569125      15.727543109999999
   213    2     1.7030701240000001               15.569125              17.7894176
   214    2     3.5140298759999999               17.964375      26.669917599999998
   215    2     8.7311298760000007               17.964375      35.493582399999994
   216    2     6.9201701240000011               15.569125              26.6130824
   217    2     3.1208692199999999               15.569125             22.86355769
   218    2     2.0962307800000004               17.964375      31.744057689999998
   219    2     7.3133307800000011               17.964375      30.419442309999997
   220    2     8.3379692199999997               15.569125      21.538942309999999
   221    2    0.33295532200000011               15.569125      28.674956889999997
   222    2     4.8841446780000002               17.964375      19.794456889999999
   223    2           10.101244678               17.964375      24.608043110000001
   224    2     5.5500553220000004               15.569125      33.488543109999995
   225    2           12.137270124      1.1976249999999999    0.028417600000000001
   226    2     13.948229876000001      3.5928749999999998      8.9089176000000005
   227    2     19.165329876000001      3.5928749999999998      17.732582399999998
   228    2     17.354370124000003      1.1976249999999999      8.8520824000000005
   229    2            13.55506922      1.1976249999999999      5.1025576899999994
   230    2     12.530430780000001      3.5928749999999998      13.983057690000001
   231    2     17.747530780000002      3.5928749999999998      12.658442309999998
   232    2     18.772169220000002      1.1976249999999999      3.7779423099999998
   233    2     10.767155322000001      1.1976249999999999             10.91395689
   234    2     15.318344678000001      3.5928749999999998      2.0334568899999996
   235    2     20.535444678000001      3.5928749999999998      6.8470431100000004
   236    2     15.984255322000001      1.1976249999999999      15.727543109999999
   237    2           12.137270124      1.1976249999999999              17.7894176
   238    2     13.948229876000001      3.5928749999999998      26.669917599999998
   239    2     19.165329876000001      3.5928749999999998      35.493582399999994
   240    2     17.354370124000003      1.1976249999999999              26.6130824
   241    2            13.55506922      1.1976249999999999             22.86355769
   242    2     12.530430780000001      3.5928749999999998      31.744057689999998
   243    2     17.747530780000002      3.5928749999999998      30.419442309999997
   244    2     18.772169220000002      1.1976249999999999      21.538942309999999
   245    2     10.767155322000001      1.1976249999999999      28.674956889999997
   246    2     15.318344678000001      3.5928749999999998      19.794456889999999
   247    2     20.535444678000001      3.5928749999999998      24.608043110000001
   248    2     15.984255322000001      1.1976249999999999      33.488543109999995
   249    2           12.137270124      5.9881250000000001    0.028417600000000001
   250    2     13.948229876000001      8.3833749999999991      8.9089176000000005
   251    2     19.165329876000001      8.3833749999999991      17.732582399999998
   252    2     17.354370124000003      5.9881250000000001      8.8520824000000005
   253    2            13.55506922      5.9881250000000001      5.1025576899999994
   254    2     12.530430780000001      8.3833749999999991      13.983057690000001
   255    2     17.747530780000002      8.3833749999999991      12.658442309999998
   256    2     18.772169220000002      5.9881250000000001      3.7779423099999998
   257    2     10.767155322000001      5.9881250000000001             10.91395689
   258    2     15.318344678000001      8.3833749999999991      2.0334568899999996
   259    2     20.535444678000001      8.3833749999999991      6.8470431100000004
   260    2     15.984255322000001      5.9881250000000001      15.727543109999999
   261    2           12.137270124      5.9881250000000001              17.7894176
   262    2     13.948229876000001      8.3833749999999991      26.669917599999998
   263    2     19.165329876000001      8.3833749999999991      35.493582399999994
   264    2     17.354370124000003      5.9881250000000001              26.6130824
   265    2            13.55506922      5.9881250000000001             22.86355769
   266    2     12.530430780000001      8.3833749999999991      31.744057689999998
   267    2     17.747530780000002      8.3833749999999991      30.419442309999997
   268    2     18.772169220000002      5.9881250000000001      21.538942309999999
   269    2     10.767155322000001      5.9881250000000001      28.674956889999997
   270    2     15.318344678000001      8.3833749999999991      19.794456889999999
   271    2     20.535444678000001      8.3833749999999991      24.608043110000001
   272    2     15.984255322000001      5.9881250000000001      33.488543109999995
   273    2           12.137270124               10.778625    0.028417600000000001
   274    2     13.948229876000001      13.173874999999999      8.9089176000000005
   275    2     19.165329876000001      13.173874999999999      17.732582399999998
   276    2     17.354370124000003               10.778625      8.8520824000000005
   277    2            13.55506922               10.778625      5.1025576899999994
   278    2     12.530430780000001      13.173874999999999      13.983057690000001
   279    2     17.747530780000002      13.173874999999999      12.658442309999998
   280    2     18.772169220000002               10.778625      3.7779423099999998
   281    2     10.767155322000001               10.778625             10.91395689
   282    2     15.318344678000001      13.173874999999999      2.0334568899999996
   283    2     20.535444678000001      13.173874999999999      6.8470431100000004
   284    2     15.984255322000001               10.778625      15.727543109999999
   285    2           12.137270124               10.778625              17.7894176
   286    2     13.948229876000001      13.173874999999999      26.669917599999998
   287    2     19.165329876000001      13.173874999999999      35.493582399999994
   288    2     17.354370124000003               10.778625              26.6130824
   289    2            13.55506922               10.778625             22.86355769
   290    2     12.530430780000001      13.173874999999999      31.744057689999998
   291    2     17.747530780000002      13.173874999999999      30.419442309999997
   292    2     18.772169220000002               10.778625      21.538942309999999
   293    2     10.767155322000001               10.778625      28.674956889999997
   294    2     15.318344678000001      13.173874999999999      19.794456889999999
   295    2     20.535444678000001      13.173874999999999      24.608043110000001
   296    2     15.984255322000001               10.778625      33.488543109999995
   297    2           12.137270124               15.569125    0.028417600000000001
   298    2     13.948229876000001               17.964375      8.9089176000000005
   299    2     19.165329876000001               17.964375      17.732582399999998
   300    2     17.354370124000003               15.569125      8.8520824000000005
   301    2            13.55506922               15.569125      5.1025576899999994
   302    2     12.530430780000001               17.964375      13.983057690000001
   303    2     17.747530780000002               17.964375      12.658442309999998
   304    2     18.772169220000002               15.569125      3.7779423099999998
   305    2     10.767155322000001               15.569125             10.91395689
   306    2     15.318344678000001               17.964375      2.0334568899999996
   307    2     20.535444678000001               17.964375      6.8470431100000004
   308    2     15.984255322000001               15.569125      15.727543109999999
   309    2           12.137270124               15.569125              17.7894176
   310    2     13.948229876000001               17.964375      26.669917599999998
   311    2     19.165329876000001               17.964375      35.493582399999994
   312    2     17.354370124000003               15.569125              26.6130824
   313    2            13.55506922               15.569125             22.86355769
   314    2     12.530430780000001               17.964375      31.744057689999998
   315    2     17.747530780000002               17.964375      30.419442309999997
   316    2     18.772169220000002               15.569125      21.538942309999999
   317    2     10.767155322000001               15.569125      28.674956889999997
   318    2     15.318344678000001               17.964375      19.794456889999999
   319    2     20.535444678000001               17.964375      24.608043110000001
   320    2     15.984255322000001               15.569125      33.488543109999995
   321    2     22.571470124000001      1.1976249999999999    0.028417600000000001
   322    2           24.382429876      3.5928749999999998      8.9089176000000005
   323    2     29.599529876000002      3.5928749999999998      17.732582399999998
   324    2     27.788570124000003      1.1976249999999999      8.8520824000000005
   325    2     23.989269220000001      1.1976249999999999      5.1025576899999994
   326    2            22.96463078      3.5928749999999998      13.983057690000001
   327    2     28.181730780000002      3.5928749999999998      12.658442309999998
   328    2     29.206369219999999      1.1976249999999999      3.7779423099999998
   329    2     21.201355322000001      1.1976249999999999             10.91395689
   330    2           25.752544678      3.5928749999999998      2.0334568899999996
   331    2     30.969644678000002      3.5928749999999998      6.8470431100000004
   332    2           26.418455322      1.1976249999999999      15.727543109999999
   333    2     22.571470124000001      1.1976249999999999              17.7894176
   334    2           24.382429876      3.5928749999999998      26.669917599999998
   335    2     29.599529876000002      3.5928749999999998      35.493582399999994
   336    2     27.788570124000003      1.1976249999999999              26.6130824
   337    2     23.989269220000001      1.1976249999999999             22.86355769
   338    2            22.96463078      3.5928749999999998      31.744057689999998
   339    2     28.181730780000002      3.5928749999999998      30.419442309999997
   340    2     29.206369219999999      1.1976249999999999      21.538942309999999
   341    2     21.201355322000001      1.1976249999999999      28.674956889999997
   342    2           25.752544678      3.5928749999999998      19.794456889999999
   343    2     30.969644678000002      3.5928749999999998      24.608043110000001
   344    2           26.418455322      1.1976249999999999      33.488543109999995
   345    2     22.571470124000001      5.9881250000000001    0.028417600000000001
   346    2           24.382429876      8.3833749999999991      8.9089176000000005
   347    2     29.599529876000002      8.3833749999999991      17.732582399999998
   348    2     27.788570124000003      5.9881250000000001      8.8520824000000005
   349    2     23.989269220000001      5.9881250000000001      5.1025576899999994
   350    2            22.96463078      8.3833749999999991      13.983057690000001
   351    2     28.181730780000002      8.3833749999999991      12.658442309999998
   352    2     29.206369219999999      5.9881250000000001      3.7779423099999998
   353    2     21.201355322000001      5.9881250000000001             10.91395689
   354    2           25.752544678      8.3833749999999991      2.0334568899999996
   355    2     30.969644678000002      8.3833749999999991      6.8470431100000004
   356    2           26.418455322      5.9881250000000001      15.727543109999999
   357    2     22.571470124000001      5.9881250000000001              17.7894176
   358    2           24.382429876      8.3833749999999991      26.669917599999998