LAMMPS data file via write_data, version 29 Aug 2024, timestep = 43, units = metal

5184 atoms
5 atom types

-0.3264857910216028 54.216685791021604 xlo xhi
-0.2827449889993654 46.95302720402352 ylo yhi
-0.2667128803369637 44.29071288033696 zlo zhi
-27.271585791021597 0 0 xy xz yz

Masses

1 12.011
2 1.007
3 126.905
4 14.0061
5 207.2

Atoms # atomic

438 2 4.299297302444732 2.026318258508442 1.8438068505889889 0 0 0
3892 4 3.852788825118015 2.6785472648233455 2.4819953905178482 0 0 0
75 1 8.546934272828555 0.011266882551349167 0.07673807305322078 0 0 0
807 2 8.015907383769818 0.7477646206799571 0.6753697324922463 0 0 0
798 2 13.38982589945196 2.0263182585084474 1.8438068505889897 0 0 0
4036 4 12.943317422125226 2.678547264823343 2.481995390517846 0 0 0
147 1 17.637462869835762 0.011266882551355939 0.07673807305321534 0 0 0
1167 2 17.106435980776993 0.74776462067995 0.6753697324922452 0 0 0
4180 4 22.03384601913242 2.678547264823343 2.4819953905178482 0 0 0
1158 2 22.480354496459135 2.0263182585084394 1.8438068505889875 0 0 0
219 1 26.727991466842976 0.011266882551357826 0.076738073053219 0 0 0
1527 2 26.19696457778424 0.7477646206799644 0.6753697324922449 0 0 0
1518 2 31.570883093466357 2.026318258508444 1.8438068505889924 0 0 0
4324 4 31.124374616139622 2.6785472648233295 2.48199539051785 0 0 0
291 1 35.81852006385019 0.011266882551340895 0.07673807305322078 0 0 0
1887 2 35.28749317479145 0.747764620679966 0.6753697324922471 0 0 0
1878 2 40.661411690473564 2.0263182585084367 1.8438068505889853 0 0 0
4468 4 40.214903213146876 2.6785472648233615 2.481995390517847 0 0 0
363 1 44.909048660857394 0.011266882551359492 0.0767380730532169 0 0 0
2247 2 44.37802177179869 0.7477646206799791 0.6753697324922526 0 0 0
2238 2 49.751940287480814 2.0263182585084474 1.8438068505889893 0 0 0
4612 4 49.305431810154076 2.678547264823359 2.481995390517839 0 0 0
3 1 53.999577257864566 0.011266882551358715 0.07673807305322045 -1 0 0
447 2 53.468550368805836 0.7477646206799624 0.6753697324922365 -1 0 0
504 2 -3.7971404190645694 6.295368955551942 0.2569283531336478 0 0 0
2601 3 -2.5864980566688223 3.657115151336889 -0.22267948551069153 0 0 0
4755 5 -0.3200337497738901 4.970762157444784 1.5941931262466786 0 0 0
441 2 3.250038487126925 3.377125211586871 2.0611423706869725 0 0 0
2599 3 1.9118011279700973 3.6721640922336 -0.2506414270874561 0 0 0
864 2 5.293388177942635 6.295368955551945 0.2569283531336436 0 0 0
2817 3 6.504030540338387 3.6571151513368827 -0.2226794855106938 0 0 0
2815 3 11.002329724977326 3.6721640922336007 -0.2506414270874553 0 0 0
4827 5 8.770494847233312 4.970762157444784 1.5941931262466755 0 0 0
801 2 12.340567084134143 3.37712521158687 2.0611423706869707 0 0 0
1224 2 14.38391677494985 6.295368955551942 0.25692835313364637 0 0 0
3033 3 15.594559137345602 3.6571151513368827 -0.2226794855106929 0 0 0
4899 5 17.86102344424052 4.970762157444787 1.5941931262466786 0 0 0
1161 2 21.431095681141343 3.37712521158688 2.0611423706869734 0 0 0
3031 3 20.09285832198453 3.6721640922336007 -0.2506414270874561 0 0 0
1584 2 23.474445371957046 6.295368955551948 0.25692835313364515 0 0 0
3249 3 24.685087734352795 3.6571151513368854 -0.2226794855106922 0 0 0
3247 3 29.183386918991754 3.6721640922336034 -0.25064142708745546 0 0 0
4971 5 26.951552041247727 4.970762157444792 1.5941931262466786 0 0 0
1521 2 30.52162427814858 3.377125211586889 2.0611423706869663 0 0 0
1944 2 32.56497396896423 6.295368955551934 0.25692835313363926 0 0 0
3465 3 33.775616331359984 3.657115151336887 -0.22267948551068986 0 0 0
5043 5 36.042080638254944 4.970762157444792 1.5941931262466764 0 0 0
1881 2 39.61215287515579 3.3771252115868773 2.0611423706869685 0 0 0
3463 3 38.27391551599893 3.6721640922336025 -0.250641427087457 0 0 0
2304 2 41.65550256597141 6.295368955551934 0.25692835313363926 0 0 0
3681 3 42.86614492836723 3.657115151336888 -0.22267948551069158 0 0 0
5115 5 45.132609235262194 4.970762157444792 1.5941931262466764 0 0 0
2241 2 48.70268147216296 3.377125211586862 2.0611423706869734 0 0 0
3679 3 47.36444411300611 3.6721640922336007 -0.2506414270874572 0 0 0
505 2 -4.269258747241018 7.06321073968873 1.7217485033490845 0 0 0
3917 4 -4.34584577067655 7.021526263789224 0.7103728915749032 0 0 0
498 2 -0.24596699605887373 9.898946957345588 1.8438068505889875 0 0 0
2600 3 -0.3240381400065502 7.586975566594873 -0.21330572671952047 0 0 0
3916 4 -0.6924754733855911 10.55117596366049 2.481995390517846 0 0 0
87 1 4.001669974324969 7.883895581388481 0.07673807305322461 0 0 0
867 2 3.4706430852662207 8.620393319517092 0.6753697324922455 0 0 0
865 2 4.821269849766186 7.06321073968873 1.7217485033490796 0 0 0
4061 4 4.744682826330649 7.021526263789241 0.7103728915748914 0 0 0
858 2 8.84456160094835 9.898946957345592 1.8438068505889889 0 0 0
2816 3 8.766490457000653 7.586975566594873 -0.2133057267195207 0 0 0
4060 4 8.398053123621633 10.551175963660492 2.481995390517845 0 0 0
159 1 13.092198571332172 7.883895581388485 0.07673807305322156 0 0 0
1225 2 13.911798446773389 7.063210739688732 1.7217485033490765 0 0 0
1227 2 12.561171682273429 8.620393319517097 0.6753697324922463 0 0 0
4205 4 13.83521142333786 7.021526263789246 0.7103728915748891 0 0 0
1218 2 17.935090197955564 9.898946957345593 1.8438068505889857 0 0 0
3032 3 17.857019054007864 7.586975566594873 -0.2133057267195217 0 0 0
4204 4 17.488581720628826 10.551175963660494 2.481995390517845 0 0 0
231 1 22.182727168339383 7.88389558138849 0.07673807305322677 0 0 0
1587 2 21.651700279280607 8.620393319517103 0.6753697324922447 0 0 0
1585 2 23.00232704378059 7.063210739688732 1.7217485033490791 0 0 0
4349 4 22.92574002034506 7.0215262637892515 0.7103728915748915 0 0 0
1578 2 27.025618794962718 9.898946957345576 1.8438068505889835 0 0 0
3248 3 26.94754765101508 7.586975566594873 -0.21330572671952144 0 0 0
4348 4 26.579110317636015 10.55117596366049 2.4819953905178442 0 0 0
303 1 31.273255765346587 7.883895581388485 0.07673807305323072 0 0 0
1945 2 32.092855640787825 7.063210739688732 1.7217485033490805 0 0 0
1947 2 30.74222887628782 8.62039331951709 0.6753697324922416 0 0 0
4493 4 32.016268617352274 7.021526263789257 0.7103728915748938 0 0 0
1938 2 36.116147391969974 9.898946957345597 1.8438068505889884 0 0 0
3464 3 36.038076248022286 7.5869755665948775 -0.21330572671951925 0 0 0
4492 4 35.66963891464326 10.551175963660508 2.4819953905178442 0 0 0
2307 2 39.832757473295054 8.620393319517108 0.6753697324922472 0 0 0
375 1 40.36378436235382 7.883895581388497 0.07673807305322411 0 0 0
2305 2 41.18338423779502 7.063210739688732 1.7217485033490796 0 0 0
4637 4 41.10679721435947 7.021526263789249 0.710372891574893 0 0 0
2298 2 45.20667598897714 9.898946957345592 1.843806850588988 0 0 0
3680 3 45.12860484502954 7.586975566594883 -0.21330572671951847 0 0 0
4636 4 44.76016751165044 10.551175963660484 2.481995390517849 0 0 0
15 1 49.454312959361005 7.883895581388495 0.07673807305322294 -1 0 0
507 2 48.92328607030225 8.620393319517103 0.6753697324922412 -1 0 0
564 2 -8.342404717568161 14.167997654389106 0.2569283531336487 0 0 0
2637 3 -7.131762355172432 11.529743850174036 -0.22267948551068947 0 0 0
4767 5 -4.865298048277498 12.843390856281946 1.5941931262466786 0 0 0
501 2 -1.2952258113766764 11.249753910424026 2.0611423706869734 0 0 0
924 2 0.7481238794390199 14.167997654389097 0.2569283531336456 0 0 0
2635 3 -2.6334631705335063 11.544792791070746 -0.2506414270874575 0 0 0
2853 3 1.958766241834775 11.529743850174036 -0.2226794855106927 0 0 0
4839 5 4.225230548729718 12.843390856281946 1.5941931262466786 0 0 0
861 2 7.795302785630541 11.249753910424026 2.061142370686971 0 0 0
2851 3 6.457065426473698 11.54479279107074 -0.2506414270874575 0 0 0
1284 2 9.838652476446256 14.167997654389108 0.2569283531336458 0 0 0
3069 3 11.049294838841998 11.529743850174036 -0.22267948551069486 0 0 0
4911 5 13.31575914573692 12.843390856281946 1.5941931262466746 0 0 0
1221 2 16.885831382637736 11.249753910424028 2.0611423706869734 0 0 0
3067 3 15.547594023480933 11.544792791070751 -0.2506414270874557 0 0 0
1644 2 18.929181073453446 14.167997654389096 0.25692835313364404 0 0 0
3285 3 20.139823435849177 11.529743850174036 -0.22267948551069458 0 0 0
3283 3 24.63812262048811 11.54479279107074 -0.25064142708745596 0 0 0
4983 5 22.406287742744126 12.843390856281946 1.5941931262466738 0 0 0
1581 2 25.976359979644975 11.249753910424038 2.0611423706869685 0 0 0
2004 2 28.019709670460667 14.167997654389113 0.2569283531336438 0 0 0
3501 3 29.230352032856448 11.529743850174036 -0.22267948551069613 0 0 0
5055 5 31.496816339751305 12.843390856281946 1.5941931262466755 0 0 0
1941 2 35.06688857665216 11.249753910424026 2.0611423706869725 0 0 0
3499 3 33.72865121749535 11.544792791070746 -0.2506414270874549 0 0 0
2364 2 37.110238267467864 14.167997654389096 0.2569283531336465 0 0 0
3717 3 38.32088062986361 11.529743850174036 -0.22267948551069247 0 0 0
3715 3 42.81917981450255 11.544792791070748 -0.2506414270874537 0 0 0
5127 5 40.58734493675852 12.843390856281946 1.5941931262466724 0 0 0
2301 2 44.157417173659354 11.249753910424026 2.0611423706869774 0 0 0
565 2 -8.814523045744636 14.935839438525871 1.7217485033490867 0 0 0
3941 4 -8.891110069180158 14.894154962626388 0.7103728915749039 0 0 0
558 2 -4.7912312945624675 17.771575656182737 1.8438068505889866 0 0 0
2636 3 -4.869302438510151 15.45960426543203 -0.21330572671951842 0 0 0
99 1 -0.5435943241786321 15.756524280225648 0.07673807305322433 0 0 0
925 2 0.27600555126256854 14.935839438525877 1.7217485033490791 0 0 0
927 2 -1.07462121323739 16.49302201835425 0.6753697324922449 0 0 0
4085 4 0.19941852782703062 14.894154962626393 0.7103728915748899 0 0 0
918 2 4.2992973024447325 17.771575656182744 1.8438068505889844 0 0 0
2852 3 4.221226158497044 15.45960426543203 -0.21330572671951809 0 0 0
171 1 8.546934272828583 15.756524280225648 0.07673807305322411 0 0 0
1285 2 9.366534148269775 14.935839438525877 1.7217485033490765 0 0 0
1287 2 8.015907383769811 16.49302201835424 0.675369732492246 0 0 0
4229 4 9.289947124834242 14.894154962626384 0.7103728915748906 0 0 0
1278 2 13.389825899451946 17.771575656182744 1.8438068505889849 0 0 0
3068 3 13.31175475550425 15.459604265432025 -0.21330572671951942 0 0 0
243 1 17.637462869835772 15.756524280225648 0.07673807305322522 0 0 0
1645 2 18.457062745276993 14.935839438525882 1.7217485033490765 0 0 0
1647 2 17.106435980777015 16.49302201835425 0.67536973249225 0 0 0
4373 4 18.38047572184145 14.894154962626395 0.7103728915748899 0 0 0
1638 2 22.48035449645912 17.77157565618274 1.8438068505889866 0 0 0
3284 3 22.402283352511432 15.45960426543203 -0.21330572671951975 0 0 0
315 1 26.727991466842987 15.756524280225637 0.07673807305322677 0 0 0
2005 2 27.547591342284214 14.935839438525882 1.7217485033490796 0 0 0
2007 2 26.19696457778422 16.493022018354235 0.6753697324922429 0 0 0
4517 4 27.471004318848667 14.894154962626406 0.7103728915748917 0 0 0
1998 2 31.570883093466378 17.77157565618276 1.8438068505889915 0 0 0
3500 3 31.492811949518725 15.45960426543203 -0.21330572671952014 0 0 0
387 1 35.81852006385022 15.756524280225637 0.07673807305322611 0 0 0
2367 2 35.28749317479147 16.493022018354246 0.6753697324922507 0 0 0
2365 2 36.6381199392914 14.935839438525877 1.7217485033490814 0 0 0
4661 4 36.56153291585588 14.894154962626395 0.7103728915748946 0 0 0
2358 2 40.66141169047361 17.771575656182762 1.8438068505889897 0 0 0
3716 3 40.58334054652597 15.45960426543203 -0.21330572671951742 0 0 0
27 1 44.90904866085738 15.756524280225648 0.07673807305322905 -1 0 0
567 2 44.3780217717986 16.493022018354235 0.6753697324922432 -1 0 0
2673 3 -11.677026653676009 19.402372549011165 -0.2226794855106922 0 0 0
2671 3 -7.178727469037117 19.41742148990788 -0.2506414270874569 0 0 0
4779 5 -9.410562346781095 20.71601955511909 1.5941931262466738 0 0 0
561 2 -5.840490109880272 19.122382609261177 2.0611423706869685 0 0 0
3940 4 -5.2377397718891965 18.423804662497634 2.481995390517847 0 0 0
2889 3 -2.5864980566688116 19.402372549011165 -0.22267948551069314 0 0 0
4851 5 -0.32003374977389054 20.71601955511909 1.5941931262466738 0 0 0
921 2 3.2500384871269157 19.122382609261162 2.0611423706869725 0 0 0
2887 3 1.911801127970091 19.41742148990788 -0.2506414270874562 0 0 0
4084 4 3.8527888251180196 18.423804662497655 2.481995390517847 0 0 0
3105 3 6.504030540338406 19.402372549011165 -0.22267948551069514 0 0 0
3103 3 11.002329724977304 19.41742148990788 -0.25064142708745635 0 0 0
4923 5 8.77049484723332 20.71601955511909 1.5941931262466746 0 0 0
1281 2 12.340567084134118 19.122382609261162 2.061142370686971 0 0 0
4228 4 12.943317422125212 18.42380466249764 2.481995390517846 0 0 0
3321 3 15.594559137345623 19.402372549011165 -0.22267948551069408 0 0 0
4995 5 17.861023444240537 20.71601955511909 1.5941931262466738 0 0 0
1641 2 21.431095681141322 19.122382609261177 2.0611423706869703 0 0 0
3319 3 20.09285832198449 19.41742148990788 -0.25064142708745774 0 0 0
4372 4 22.033846019132397 18.423804662497627 2.48199539051785 0 0 0
3537 3 24.68508773435279 19.402372549011186 -0.22267948551068958 0 0 0
3535 3 29.183386918991708 19.4174214899079 -0.25064142708745685 0 0 0
5067 5 26.951552041247744 20.71601955511909 1.5941931262466795 0 0 0
2001 2 30.52162427814858 19.122382609261194 2.0611423706869636 0 0 0
4516 4 31.124374616139647 18.423804662497645 2.481995390517845 0 0 0
3753 3 33.77561633136002 19.402372549011186 -0.22267948551069297 0 0 0
5139 5 36.042080638254994 20.71601955511909 1.5941931262466724 0 0 0
2361 2 39.612152875155736 19.122382609261177 2.0611423706869756 0 0 0
3751 3 38.273915515998944 19.4174214899079 -0.25064142708745296 0 0 0
4660 4 40.214903213146876 18.423804662497666 2.481995390517841 0 0 0
3965 4 -13.436374367683765 22.766783661463528 0.7103728915748887 0 0 0
624 2 -12.887669016071765 22.04062635322624 0.25692835313363815 0 0 0
625 2 -13.359787344248215 22.808468137363025 1.721748503349072 0 0 0
2672 3 -9.414566737013779 23.332232964269178 -0.2133057267195195 0 0 0
111 1 -5.088858622682239 23.629152979062773 0.07673807305322589 0 0 0
984 2 -3.7971404190645712 22.040626353226234 0.2569283531336395 0 0 0
985 2 -4.269258747241014 22.808468137363015 1.7217485033490756 0 0 0
987 2 -5.619885511740992 24.365650717191375 0.6753697324922566 0 0 0
4109 4 -4.345845770676557 22.766783661463524 0.7103728915748899 0 0 0
2888 3 -0.32403814000655995 23.332232964269178 -0.21330572671951997 0 0 0
183 1 4.001669974324966 23.62915297906278 0.07673807305322233 0 0 0
1347 2 3.4706430852662313 24.365650717191386 0.6753697324922526 0 0 0
1344 2 5.2933881779426395 22.04062635322624 0.2569283531336405 0 0 0
1345 2 4.821269849766197 22.808468137363015 1.7217485033490734 0 0 0
4253 4 4.744682826330654 22.766783661463517 0.7103728915748853 0 0 0
3104 3 8.76649045700065 23.332232964269178 -0.21330572671951964 0 0 0
255 1 13.092198571332187 23.62915297906278 0.07673807305321861 0 0 0
1704 2 14.383916774949842 22.04062635322624 0.2569283531336387 0 0 0
1705 2 13.911798446773403 22.808468137363025 1.7217485033490725 0 0 0
1707 2 12.561171682273443 24.365650717191375 0.6753697324922499 0 0 0
4397 4 13.835211423337878 22.76678366146354 0.7103728915748853 0 0 0
3320 3 17.85701905400788 23.332232964269178 -0.21330572671952025 0 0 0
327 1 22.182727168339387 23.629152979062784 0.07673807305322039 0 0 0
2067 2 21.651700279280625 24.365650717191386 0.6753697324922471 0 0 0
2064 2 23.47444537195705 22.040626353226244 0.25692835313364226 0 0 0
2065 2 23.00232704378057 22.808468137363025 1.7217485033490765 0 0 0
4541 4 22.925740020345067 22.76678366146355 0.710372891574884 0 0 0
3536 3 26.947547651015054 23.332232964269178 -0.21330572671952136 0 0 0
399 1 31.273255765346622 23.629152979062784 0.07673807305322472 0 0 0
2424 2 32.5649739689643 22.04062635322625 0.25692835313363827 0 0 0
2425 2 32.092855640787846 22.808468137363036 1.7217485033490751 0 0 0
2427 2 30.74222887628787 24.3656507171914 0.6753697324922527 0 0 0
4685 4 32.01626861735229 22.766783661463545 0.7103728915748883 0 0 0
3752 3 36.038076248022286 23.332232964269178 -0.21330572671952086 0 0 0
627 2 39.832757473295025 24.36565071719138 0.6753697324922526 -1 0 0
39 1 40.36378436235377 23.62915297906279 0.07673807305320895 -1 0 0
2709 3 -16.222290952179616 27.275001247848337 -0.22267948551069075 0 0 0
4791 5 -13.95582664528471 28.588648253956244 1.5941931262466746 0 0 0
621 2 -10.385754408383903 26.99501130809833 2.061142370686974 0 0 0
2707 3 -11.723991767540706 27.290050188745035 -0.250641427087457 0 0 0
618 2 -9.336495593066097 25.644204355019895 1.8438068505889884 0 0 0
2925 3 -7.131762355172424 27.275001247848337 -0.2226794855106917 0 0 0
3964 4 -9.78300407039281 26.2964333613348 2.4819953905178482 0 0 0
4863 5 -4.8652980482774995 28.588648253956244 1.5941931262466777 0 0 0
978 2 -0.24596699605886752 25.644204355019884 1.8438068505889857 0 0 0
981 2 -1.2952258113766666 26.99501130809832 2.061142370686971 0 0 0
2923 3 -2.6334631705335108 27.290050188745035 -0.25064142708745585 0 0 0
4108 4 -0.6924754733855929 26.29643336133479 2.4819953905178482 0 0 0
3141 3 1.958766241834799 27.275001247848337 -0.22267948551069275 0 0 0
4935 5 4.225230548729695 28.588648253956244 1.5941931262466777 0 0 0
1341 2 7.795302785630521 26.99501130809833 2.0611423706869854 0 0 0
3139 3 6.4570654264737 27.290050188745035 -0.25064142708745574 0 0 0
1338 2 8.844561600948335 25.644204355019895 1.8438068505889804 0 0 0
3357 3 11.049294838841995 27.275001247848337 -0.22267948551069458 0 0 0
4252 4 8.398053123621622 26.29643336133481 2.481995390517849 0 0 0
5007 5 13.315759145736887 28.588648253956244 1.5941931262466764 0 0 0
1698 2 17.93509019795551 25.644204355019884 1.8438068505889764 0 0 0
1701 2 16.885831382637747 26.99501130809833 2.0611423706869765 0 0 0
3355 3 15.547594023480897 27.290050188745035 -0.25064142708745696 0 0 0
4396 4 17.48858172062882 26.2964333613348 2.4819953905178442 0 0 0
3573 3 20.139823435849202 27.275001247848337 -0.22267948551069378 0 0 0
3571 3 24.63812262048812 27.290050188745035 -0.25064142708745696 0 0 0
5079 5 22.406287742744084 28.588648253956233 1.5941931262466777 0 0 0
2058 2 27.025618794962746 25.644204355019905 1.8438068505889835 0 0 0
2061 2 25.976359979644947 26.99501130809835 2.061142370686978 0 0 0
3789 3 29.230352032856445 27.275001247848337 -0.2226794855106947 0 0 0
4540 4 26.57911031763602 26.29643336133481 2.4819953905178473 0 0 0
5151 5 31.49681633975133 28.588648253956254 1.5941931262466777 0 0 0
2418 2 36.11614739196997 25.644204355019912 1.843806850588988 0 0 0
2421 2 35.06688857665212 26.99501130809833 2.0611423706869725 0 0 0
3787 3 33.72865121749535 27.290050188745045 -0.25064142708745796 0 0 0
4684 4 35.66963891464322 26.2964333613348 2.4819953905178513 0 0 0
684 2 -17.43293331457541 29.913255052063374 0.25692835313364404 0 0 0
685 2 -17.90505164275182 30.681096836200172 1.7217485033490827 0 0 0
3989 4 -17.98163866618738 30.639412360300668 0.7103728915748988 0 0 0
2708 3 -13.959831035517382 31.204861663106335 -0.2133057267195173 0 0 0
1047 2 -10.16514981024459 32.23827941602853 0.6753697324922471 0 0 0
123 1 -9.634122921185838 31.501781677899928 0.07673807305322256 0 0 0
1044 2 -8.342404717568176 29.913255052063384 0.25692835313364737 0 0 0
1045 2 -8.814523045744604 30.681096836200172 1.7217485033490765 0 0 0
4133 4 -8.891110069180161 30.63941236030068 0.7103728915748939 0 0 0
2924 3 -4.869302438510151 31.204861663106335 -0.21330572671951686 0 0 0
195 1 -0.5435943241786445 31.50178167789992 0.07673807305322472 0 0 0
1404 2 0.7481238794390253 29.913255052063384 0.25692835313364715 0 0 0
1405 2 0.2760055512626076 30.681096836200172 1.7217485033490774 0 0 0
1407 2 -1.0746212132373918 32.23827941602853 0.6753697324922463 0 0 0
4277 4 0.1994185278270466 30.63941236030068 0.710372891574895 0 0 0
3140 3 4.22122615849704 31.204861663106335 -0.2133057267195166 0 0 0
267 1 8.546934272828569 31.501781677899928 0.07673807305322639 0 0 0
1764 2 9.838652476446242 29.91325505206338 0.2569283531336438 0 0 0
1765 2 9.366534148269821 30.681096836200172 1.7217485033490765 0 0 0
1767 2 8.015907383769829 32.23827941602853 0.6753697324922475 0 0 0
4421 4 9.28994712483426 30.63941236030068 0.7103728915748926 0 0 0
3356 3 13.311754755504257 31.204861663106335 -0.21330572671951836 0 0 0
339 1 17.63746286983578 31.50178167789992 0.07673807305322611 0 0 0
2125 2 18.457062745277025 30.681096836200172 1.7217485033490765 0 0 0
2127 2 17.106435980777036 32.23827941602853 0.6753697324922535 0 0 0
4565 4 18.380475721841464 30.639412360300682 0.7103728915748919 0 0 0
2124 2 18.929181073453442 29.91325505206338 0.25692835313364515 0 0 0
3572 3 22.402283352511493 31.204861663106335 -0.21330572671951614 0 0 0
411 1 26.727991466842987 31.501781677899938 0.07673807305322389 0 0 0
2484 2 28.019709670460603 29.913255052063374 0.25692835313364026 0 0 0
2485 2 27.547591342284218 30.681096836200183 1.7217485033490774 0 0 0
2487 2 26.196964577784268 32.238279416028554 0.6753697324922479 0 0 0
4709 4 27.47100431884864 30.63941236030068 0.7103728915748919 0 0 0
3788 3 31.492811949518643 31.204861663106335 -0.2133057267195177 0 0 0
51 1 35.81852006385018 31.50178167789993 0.07673807305322156 -1 0 0
687 2 35.28749317479146 32.238279416028554 0.6753697324922471 -1 0 0
2745 3 -20.767555250683223 35.14762994668546 -0.2226794855106931 0 0 0
678 2 -13.881759891569668 33.51683305385705 1.8438068505889849 0 0 0
681 2 -14.931018706887485 34.86764000693549 2.0611423706869743 0 0 0
2743 3 -16.269256066044324 35.16267888758221 -0.25064142708745685 0 0 0
3988 4 -14.328268368896413 34.16906206017197 2.481995390517846 0 0 0
2961 3 -11.67702665367602 35.14762994668546 -0.2226794855106931 0 0 0
2959 3 -7.178727469037116 35.16267888758221 -0.25064142708745707 0 0 0
1038 2 -4.791231294562476 33.51683305385705 1.8438068505889804 0 0 0
1041 2 -5.840490109880272 34.86764000693549 2.0611423706869796 0 0 0
4132 4 -5.23773977188922 34.16906206017194 2.481995390517849 0 0 0
3177 3 -2.5864980566688294 35.14762994668546 -0.22267948551069175 0 0 0
1398 2 4.299297302444718 33.51683305385707 1.8438068505889835 0 0 0
1401 2 3.250038487126923 34.867640006935495 2.0611423706869774 0 0 0
3175 3 1.911801127970084 35.16267888758221 -0.2506414270874566 0 0 0
4276 4 3.852788825117991 34.16906206017196 2.4819953905178482 0 0 0
3393 3 6.5040305403383885 35.14762994668546 -0.22267948551069458 0 0 0
3391 3 11.002329724977297 35.16267888758221 -0.2506414270874564 0 0 0
1758 2 13.389825899451932 33.51683305385702 1.8438068505889822 0 0 0
1761 2 12.340567084134154 34.86764000693549 2.0611423706869756 0 0 0
4420 4 12.943317422125208 34.169062060171946 2.481995390517841 0 0 0
3609 3 15.594559137345612 35.14762994668546 -0.22267948551069697 0 0 0
2121 2 21.43109568114134 34.86764000693549 2.0611423706869725 0 0 0
3607 3 20.0928583219845 35.16267888758221 -0.25064142708745674 0 0 0
4564 4 22.03384601913243 34.16906206017196 2.481995390517845 0 0 0
2118 2 22.480354496459157 33.51683305385705 1.8438068505889897 0 0 0
3825 3 24.685087734352855 35.14762994668546 -0.22267948551069638 0 0 0
3823 3 29.183386918991737 35.16267888758221 -0.25064142708745535 0 0 0
2478 2 31.570883093466335 33.516833053857034 1.8438068505889857 0 0 0
2481 2 30.521624278148582 34.86764000693549 2.0611423706869756 0 0 0
4708 4 31.124374616139626 34.16906206017194 2.481995390517847 0 0 0
744 2 -21.978197613078997 37.78588375090051 0.25692835313365203 0 0 0
745 2 -22.45031594125545 38.55372553503732 1.7217485033490774 0 0 0
4013 4 -22.526902964690958 38.51204105913783 0.7103728915748939 0 0 0
2744 3 -18.50509533402097 39.077490361943504 -0.21330572671951986 0 0 0
4803 5 -18.501090943788302 36.461276952793405 1.5941931262466746 0 0 0
135 1 -14.179387219689456 39.37441037673708 0.07673807305322816 0 0 0
4157 4 -13.436374367683761 38.51204105913785 0.7103728915748941 0 0 0
1104 2 -12.88766901607179 37.78588375090053 0.2569283531336446 0 0 0
1105 2 -13.35978734424825 38.55372553503732 1.7217485033490814 0 0 0
2960 3 -9.414566737013775 39.077490361943504 -0.21330572671951853 0 0 0
4875 5 -9.410562346781113 36.461276952793405 1.5941931262466755 0 0 0
207 1 -5.088858622682248 39.37441037673709 0.07673807305322461 0 0 0
1464 2 -3.797140419064582 37.78588375090055 0.25692835313364426 0 0 0
1465 2 -4.269258747241042 38.55372553503732 1.7217485033490751 0 0 0
4301 4 -4.345845770676557 38.51204105913785 0.7103728915748896 0 0 0
3176 3 -0.3240381400065706 39.077490361943504 -0.21330572671951842 0 0 0
4947 5 -0.32003374977389054 36.461276952793405 1.5941931262466733 0 0 0
279 1 4.001669974324966 39.37441037673707 0.07673807305322211 0 0 0
1824 2 5.2933881779426395 37.78588375090055 0.2569283531336495 0 0 0
1825 2 4.821269849766172 38.55372553503732 1.7217485033490791 0 0 0
4445 4 4.744682826330622 38.51204105913783 0.7103728915748935 0 0 0
3392 3 8.766490457000625 39.077490361943504 -0.2133057267195187 0 0 0
5019 5 8.770494847233326 36.461276952793405 1.5941931262466724 0 0 0
351 1 13.092198571332169 39.37441037673708 0.07673807305322211 0 0 0
2184 2 14.383916774949835 37.78588375090055 0.2569283531336529 0 0 0
2185 2 13.911798446773386 38.553725535037344 1.7217485033490805 0 0 0
4589 4 13.835211423337835 38.51204105913785 0.7103728915748958 0 0 0
3608 3 17.857019054007843 39.077490361943504 -0.21330572671951914 0 0 0
5091 5 17.861023444240534 36.461276952793405 1.5941931262466777 0 0 0
423 1 22.182727168339394 39.37441037673708 0.07673807305322561 0 0 0
2544 2 23.474445371957056 37.78588375090055 0.2569283531336475 0 0 0
2545 2 23.00232704378056 38.55372553503732 1.7217485033490774 0 0 0
4733 4 22.925740020345085 38.51204105913786 0.7103728915748915 0 0 0
3824 3 26.9475476510151 39.077490361943504 -0.21330572671951747 0 0 0
5163 5 26.95155204124774 36.461276952793405 1.5941931262466733 0 0 0
63 1 31.2732557653466 39.37441037673709 0.076738073053217 -1 0 0
2781 3 -25.312819549186866 43.02025864552263 -0.22267948551069108 0 0 0
2779 3 -20.81452036454795 43.035307586419364 -0.2506414270874586 0 0 0
738 2 -18.42702419007329 41.389461752694196 1.843806850588988 0 0 0
741 2 -19.476283005391114 42.740268705772614 2.0611423706869734 0 0 0
4012 4 -18.873532667400006 42.0416907590091 2.481995390517849 0 0 0
1107 2 -14.71041410874821 40.110908114865694 0.6753697324922522 0 0 0
2997 3 -16.22229095217966 43.02025864552263 -0.22267948551069378 0 0 0
1101 2 -10.385754408383853 42.74026870577265 2.0611423706869756 0 0 0
2995 3 -11.72399176754072 43.035307586419364 -0.2506414270874569 0 0 0
1098 2 -9.336495593066076 41.3894617526942 1.843806850588979 0 0 0
3213 3 -7.131762355172444 43.02025864552263 -0.22267948551069308 0 0 0
4156 4 -9.783004070392803 42.0416907590091 2.4819953905178482 0 0 0
1467 2 -5.619885511740999 40.1109081148657 0.6753697324922491 0 0 0
1458 2 -0.24596699605887462 41.3894617526942 1.8438068505889857 0 0 0
1461 2 -1.2952258113766772 42.74026870577265 2.0611423706869814 0 0 0
3211 3 -2.633463170533509 43.035307586419364 -0.25064142708745696 0 0 0
4300 4 -0.6924754733856018 42.0416907590091 2.4819953905178473 0 0 0
1827 2 3.470643085266233 40.110908114865694 0.6753697324922515 0 0 0
3429 3 1.9587662418347778 43.02025864552263 -0.22267948551069613 0 0 0
1821 2 7.795302785630576 42.74026870577265 2.0611423706869623 0 0 0
3427 3 6.457065426473695 43.035307586419364 -0.250641427087457 0 0 0
1818 2 8.844561600948346 41.389461752694196 1.8438068505889915 0 0 0
3645 3 11.049294838842009 43.02025864552263 -0.2226794855106978 0 0 0
4444 4 8.398053123621615 42.041690759009086 2.4819953905178442 0 0 0
2187 2 12.561171682273432 40.110908114865694 0.6753697324922503 0 0 0
2178 2 17.93509019795553 41.389461752694196 1.8438068505889826 0 0 0
2181 2 16.885831382637722 42.740268705772635 2.0611423706869814 0 0 0
3643 3 15.547594023480901 43.035307586419364 -0.25064142708745885 0 0 0
4588 4 17.488581720628815 42.04169075900907 2.481995390517847 0 0 0
2547 2 21.651700279280654 40.1109081148657 0.6753697324922531 0 0 0
3861 3 20.139823435849216 43.02025864552263 -0.2226794855106959 0 0 0
3859 3 24.6381226204881 43.035307586419364 -0.2506414270874531 0 0 0
2538 2 27.025618794962753 41.389461752694196 1.8438068505889897 0 0 0
2541 2 25.976359979644947 42.740268705772614 2.0611423706869765 0 0 0
4732 4 26.57911031763605 42.041690759009086 2.481995390517847 0 0 0
747 2 30.742228876287882 40.1109081148657 0.6753697324922514 -1 0 0
444 2 -26.523461911582615 45.65851244973768 0.25692835313364737 0 -1 0
445 2 -26.995580239759036 46.42635423387447 1.7217485033490827 0 -1 0
3893 4 -27.07216726319458 46.38466975797497 0.7103728915749028 0 -1 0
2780 3 -23.050359632524593 46.95011906078062 -0.21330572671952203 0 0 0
4815 5 -23.04635524229191 44.33390565163057 1.5941931262466746 0 0 0
804 2 -17.4329333145754 45.65851244973768 0.25692835313365203 0 -1 0
805 2 -17.905051642751832 46.42635423387447 1.7217485033490774 0 -1 0
4037 4 -17.981638666187372 46.38466975797497 0.7103728915748962 0 -1 0
2996 3 -13.959831035517386 46.95011906078062 -0.21330572671952303 0 0 0
4887 5 -13.955826645284713 44.33390565163057 1.5941931262466764 0 0 0
1164 2 -8.342404717568172 45.6585124497377 0.25692835313364937 0 -1 0
1165 2 -8.814523045744604 46.42635423387447 1.7217485033490796 0 -1 0
4181 4 -8.89111006918015 46.38466975797501 0.7103728915748974 0 -1 0
3212 3 -4.869302438510174 46.95011906078062 -0.21330572671952147 0 0 0
4959 5 -4.865298048277501 44.33390565163057 1.5941931262466755 0 0 0
1524 2 0.7481238794390395 45.658512449737685 0.2569283531336489 0 -1 0
1525 2 0.27600555126259696 46.42635423387448 1.7217485033490796 0 -1 0
4325 4 0.19941852782705372 46.38466975797499 0.7103728915748949 0 -1 0
3428 3 4.221226158497029 46.95011906078062 -0.21330572671952264 0 0 0
5031 5 4.225230548729724 44.33390565163057 1.5941931262466733 0 0 0
1884 2 9.838652476446253 45.658512449737685 0.25692835313365103 0 -1 0
1885 2 9.366534148269775 46.42635423387447 1.7217485033490796 0 -1 0
4469 4 9.28994712483425 46.38466975797499 0.7103728915748955 0 -1 0
3644 3 13.311754755504264 46.95011906078062 -0.21330572671952308 0 0 0