LAMMPS data file via write_data, version 29 Aug 2024, timestep = 10000, units = metal

1280 atoms
3 atom types

0 23.496 xlo xhi
0 23.496 ylo yhi
0 97 zlo zhi
0 0 0 xy xz yz

Masses

1 79.904
2 132.904999
3 207.199997

Atoms # atomic

1040 3 2.0715761731822764 2.87654666036808 2.823873923809604 0 0 0
228 1 5.038595997154495 2.7399286887454135 3.212365366451366 0 0 0
1100 3 8.104040689424028 2.643343844253678 2.7953669312223965 0 0 0
240 1 11.118602203250225 2.2547771394371154 2.9794736345185493 0 0 0
848 2 11.723062870205492 0.05974712284100656 0.36461768289424223 0 0 0
1104 3 13.809935378556398 2.511494324663167 3.167507556634729 0 0 0
36 1 16.775723255634286 2.575573094990992 3.5590353108767974 -1 0 0
48 1 22.643073560782756 2.8041621072365266 2.773920142865453 -1 0 0
1036 3 19.663083141631656 2.625052800042143 3.105783003022798 -1 0 0
34 1 19.912511254293573 2.878567449164354 0.02859506871248315 -1 0 0
137 1 2.131664810501887 5.9235476544387335 2.6767896609391593 0 0 0
1070 3 1.801477984552608 9.031244887646585 2.8077763170451533 0 0 0
874 2 4.604146585770043 5.948956135060861 0.3204276724557318 0 0 0
317 1 8.00626944972487 5.406852937920651 2.5950284319395798 0 0 0
1130 3 8.03806020715314 8.699986278825163 2.9597737122299086 0 0 0
316 1 8.579860369086628 9.050346964766803 0.19515741336764955 0 0 0
318 1 5.05931364371896 9.313863174304073 3.1792617643080012 0 0 0
330 1 10.899126389969295 8.522951023134622 3.660848808144291 0 0 0
878 2 11.206704569391654 5.628415956167915 0.0022253141982300217 0 0 0
1134 3 14.08918895145187 8.560458544532768 2.820277861242248 0 0 0
329 1 13.773489093006765 5.38272132066228 2.8881963267947826 0 0 0
328 1 13.874982229123157 8.62509126067387 0.03714182528301824 0 0 0
126 1 16.885085386618332 8.30102734092155 3.0190408012317063 -1 0 0
810 2 17.282584892113032 5.721060145942835 0.4154824118385892 -1 0 0
125 1 19.7410645636207 5.9500554635513785 2.924858882647225 -1 0 0
1066 3 19.70827648395932 8.736048404956632 2.935877969240842 -1 0 0
138 1 22.701394659847384 8.405057972963352 3.3905812602100034 -1 0 0
814 2 22.046321291211502 5.866758275863448 0.21140328328514782 -1 0 0
124 1 19.846623734789087 8.830805845183994 0.13951783566059092 -1 0 0
143 1 1.9502911239356542 11.725893216051968 3.8136072316994887 0 0 0
323 1 8.198857350883229 11.502242249148074 3.5533860877552224 0 0 0
335 1 13.91043182115415 11.74231994400337 3.197430029214052 0 0 0
880 2 10.87642597178262 11.42615880856974 0.38501157808337044 0 0 0
336 1 11.302467302005702 13.892572860305627 2.9051455782506936 0 0 0
131 1 19.030217328358713 11.509671554188749 2.9898719340952837 -1 0 0
41 1 3.408485198786176 17.222981780349148 3.096026680495021 0 -1 0
1072 3 2.9389056292626794 14.639551473204264 2.5285072733904457 0 0 0
221 1 9.189431876944107 17.548799090402415 2.9925732735495556 0 -1 0
324 1 5.550322832022701 14.459961048171392 3.9976178899055625 0 0 0
1132 3 8.388550378085569 14.553103868966105 2.863435931452763 0 0 0
842 2 5.467687776201992 17.299754517362054 0.35521403543033747 0 -1 0
322 1 8.235055808736384 14.378795176886744 0.22680632261344477 0 0 0
1136 3 14.18727785346978 14.322233329516216 2.672671395539 0 0 0
132 1 16.898117121615858 14.361952691211991 3.16402566012832 -1 0 0
233 1 14.121161292929996 17.384724034823154 2.5998648440306193 0 -1 0
144 1 23.132643678442243 14.32016693808662 1.8233692386632956 -1 0 0
29 1 19.816891938573143 17.22318850544762 2.3935168753912484 -1 -1 0
1068 3 19.762203424459756 14.330439436249847 2.850688984746339 -1 0 0
47 1 2.1186336756556057 23.25006694985491 3.3345774253412634 0 -1 0
1038 3 2.6657299496664524 20.2751836414572 3.111342510747844 0 -1 0
40 1 2.753495210018685 20.675657427521692 0.05266983249405341 0 -1 0
227 1 8.225450947070183 23.348826430678468 4.072598716729951 0 -1 0
222 1 5.710798427471121 20.51416655644749 2.3070744356857342 0 -1 0
1098 3 8.450900734187465 20.536445428492673 3.0081083419964143 0 -1 0
220 1 8.657816955666354 21.509991132768853 0.15937714207961154 0 -1 0
239 1 13.763130170304075 23.148930703519166 3.098091343897236 0 -1 0
234 1 11.251355529731043 20.776438728425504 3.5459011480124603 0 -1 0
1102 3 14.147223733007722 20.12610683915428 2.9649480573277542 0 -1 0
30 1 16.90127396703353 20.000397665876225 2.266770900692909 -1 -1 0
35 1 20.149901777214932 23.16020148130035 2.1247768272748644 -1 -1 0
42 1 22.864461453153698 19.782251349173066 2.43170458240178 -1 -1 0
1034 3 19.884358074572898 20.04913919184599 2.6695661006828013 -1 -1 0
784 2 23.138677083774976 23.235029570739645 0.4235859783754522 -1 -1 0
67 1 2.0542435608807432 2.6420819805912235 5.866041914685521 0 0 0
1047 3 2.303709655610733 2.681496806052053 8.901455458716029 0 0 0
1107 3 8.047769813897395 3.052161421296829 8.80203370971981 0 0 0
247 1 8.071736405244597 2.9073995362237386 5.960140120365714 0 0 0
249 1 5.018995684839086 3.229917987930565 8.676660155822356 0 0 0
851 2 5.055472780261575 0.10113371830357126 6.055903548685966 0 0 0
259 1 13.442766016007583 2.8707864702784742 6.409019077583966 0 0 0
1111 3 13.76296880102788 2.7201225834106255 9.231526946074096 0 0 0
855 2 10.784562843200286 0.02659793480190536 5.898875517133867 0 0 0
57 1 16.907160280306517 2.4103547172655175 8.191991508254434 -1 0 0
55 1 20.56887513812305 2.204825673023782 6.038542384980238 -1 0 0
1043 3 19.824350960726015 2.1624210018373446 8.95266710481707 -1 0 0
158 1 1.8494747316714926 5.621516683420285 8.81604351928615 0 0 0
1077 3 2.3798552708269995 8.57772247003394 8.177092217863649 0 0 0
157 1 2.9868355442460524 8.513659875325315 5.54438131654966 0 0 0
881 2 5.154165575971614 5.155311009901646 5.667693831027342 0 0 0
1137 3 8.080315877643729 8.627853376945785 8.544913018306985 0 0 0
337 1 7.799992981981631 7.767896752907303 5.643528546539614 0 0 0
339 1 5.236098940005486 7.939643974004962 8.62708927687043 0 0 0
885 2 11.33828707826304 5.526639207874789 5.752381955359782 0 0 0
351 1 11.124902739525691 8.214249385236347 8.570239931035998 0 0 0
1141 3 14.397777729659625 8.334958873671365 8.4938034390384 0 0 0
817 2 17.174867919593744 5.159425031830302 5.859314225396273 -1 0 0
349 1 14.186613822020009 8.265023078896526 5.58464516874384 0 0 0
147 1 17.133577765224707 9.073909476893823 9.015084550239791 -1 0 0
350 1 14.631767394690598 5.372214828436988 8.659653907345561 0 0 0
821 2 22.637985387748447 4.977823992207294 6.167987025154323 -1 0 0
145 1 19.005006005570966 8.598935585495983 5.947481086204953 -1 0 0
1073 3 20.32366273650653 8.514787609425106 8.485341080941232 -1 0 0
146 1 20.088107808810015 5.277800553094255 8.62132910840195 -1 0 0
159 1 22.992157899141176 8.21763053444913 7.524931815721368 -1 0 0
164 1 2.0364924601034686 11.541511533590649 8.642107525721434 0 0 0
883 2 5.58500565214324 11.508921528786571 5.720681494640819 0 0 0
344 1 8.277305327556615 11.479992035599865 8.638627383180365 0 0 0
887 2 11.425889624026146 11.357695921591093 5.843554018929682 0 0 0
356 1 13.7375832300406 11.544894851769016 8.15478204080771 0 0 0
819 2 16.692158874695156 11.64911527790687 5.680549317650086 -1 0 0
153 1 16.60825482020804 13.706489632238062 8.508026714518621 -1 0 0
823 2 22.94876030948945 11.86348960379165 6.150784953049829 -1 0 0
152 1 20.05905387404936 11.459944575123748 8.13280545255403 -1 0 0
163 1 2.285127700437504 15.066518919592498 6.094723008931709 0 0 0
1079 3 2.1186740164862745 14.555475373656773 8.699358198264736 0 0 0
343 1 8.90550301474963 14.850275354412984 6.083709757488593 0 0 0
849 2 5.643461697118139 17.56685146056509 6.015176181186211 0 -1 0
1139 3 8.193564293557591 14.539479238438574 8.77481290878923 0 0 0
345 1 4.977385944472963 14.503006400459684 8.60838330090615 0 0 0
242 1 7.744612720358806 17.492692004028495 8.926212171954345 0 -1 0
853 2 11.546510356505001 17.36165192357755 5.957470086168841 0 -1 0
357 1 11.05187273801623 15.29050980295474 8.818286975899886 0 0 0
1143 3 13.8579962228478 14.667035928648586 8.777754271748137 0 0 0
355 1 13.955264780452572 14.543865176544799 5.585563047122843 0 0 0
254 1 14.849466077743632 17.449814488171572 8.723193827732834 0 -1 0
785 2 17.102707749355346 17.656350127455656 5.129075368138726 -1 -1 0
50 1 18.72937184043001 17.056098953096154 8.528295896751844 -1 -1 0
151 1 20.27949848272498 14.10314591832362 5.5070569831686225 -1 0 0
789 2 22.940651138237044 16.72306114860756 5.307261166391816 -1 -1 0
1075 3 19.494750960407913 14.308067983774448 8.6349041729864 -1 0 0
165 1 22.4389306174166 14.473155196094567 8.576116427977784 -1 0 0
61 1 2.4053999838453928 20.449351964979716 6.048386433728229 0 -1 0
1045 3 1.9237374097321294 19.99469489375494 8.848011115620006 0 -1 0
68 1 1.9112273130388628 23.1631068357625 8.5864102024755 0 -1 0
241 1 8.590909251986284 19.73886670912138 5.749170386363506 0 -1 0
1105 3 8.136782302751238 20.34138004724851 8.773548393510731 0 -1 0
248 1 8.26638243917325 23.332031214642964 8.327112688416014 0 -1 0
243 1 5.175231384176089 20.19148267074384 8.408555325761489 0 -1 0
260 1 13.790479929903137 23.239815374784676 8.269876934162479 0 -1 0
787 2 16.398793374877712 22.83638451318219 5.855923733162549 -1 -1 0
1109 3 14.134880358126072 20.360824920859216 8.758107780379579 0 -1 0
253 1 14.117044544690996 19.793283658900513 5.700744322954622 0 -1 0
51 1 16.994844981887717 20.953008782070793 8.389980480913447 -1 -1 0
791 2 23.16441314455268 23.1432462849956 5.887824466969955 -1 -1 0
49 1 19.700311113768578 20.77861468289193 5.533597989481266 -1 -1 0
1041 3 19.939629377726142 20.197116678111993 8.446495896873428 -1 -1 0
63 1 22.63815920959875 19.858418687491888 7.460194512785697 -1 -1 0
56 1 20.627259826931873 22.86481512074512 8.634560596025272 -1 -1 0
70 1 2.425817010665151 2.232787333332338 11.615745539741901 0 0 0
250 1 7.938000172362229 2.6149550132058605 11.853688912386366 0 0 0
261 1 10.987955176454893 2.5154312452572873 9.553588994136431 0 0 0
262 1 14.448249781847492 1.7695559493360906 11.96392276920706 0 0 0
69 1 22.563512866041442 2.1176228195044526 9.387857891215475 -1 0 0
58 1 19.47936697917744 3.0313280259671633 11.594383738046588 -1 0 0
160 1 1.399668540171971 8.741655574853944 11.615827488486643 0 0 0
338 1 8.613781413875929 5.786071261183136 9.432474685363761 0 0 0
882 2 5.677311507815307 6.154589826879111 12.137438253563888 0 0 0
340 1 8.156267601197712 8.942879394729207 11.378190357244712 0 0 0
342 1 5.594349257467286 9.185055364822803 13.799487102315767 0 0 0
886 2 11.391728438873914 6.124028394205936 11.516495769528033 0 0 0
818 2 17.621963797338033 6.035200253743744 10.979106228291393 -1 0 0
352 1 14.26175633051665 8.884564469059065 11.267234884247102 0 0 0
822 2 22.782103680396425 5.503948159403458 11.092129184744142 -1 0 0
148 1 20.747004804730903 8.946694152043994 11.579874719805966 -1 0 0
149 1 20.620229354622637 5.806299223840548 13.718542218102543 -1 0 0
884 2 5.354858463783712 11.650687288646973 11.365356017490845 0 0 0
346 1 8.172112936070615 14.0870437231372 11.810651652623896 0 0 0
888 2 11.267933381472687 11.32119151726673 11.545778125462595 0 0 0
820 2 17.305317160575864 11.483095114431046 11.638874898633539 -1 0 0
824 2 22.966824518278084 11.837937049218722 11.227093488185801 -1 0 0
62 1 1.4062897639721272 17.33248541655058 9.441679024877013 0 -1 0
166 1 2.485015918095271 14.223350784383372 11.873534327796929 0 0 0
850 2 5.386762576866134 16.772505304547245 12.030527790396933 0 -1 0
854 2 10.309866766791789 17.068591319638962 11.682325976182431 0 -1 0
358 1 14.548876159638317 14.330781839598826 11.418013250219527 0 0 0
786 2 17.233285482101735 18.044015863735197 11.45807712709876 -1 -1 0
790 2 22.76095046834851 17.363013652473814 12.025508173710882 -1 -1 0
154 1 19.890124990031296 14.311055849499665 11.662793945305213 -1 0 0
64 1 2.3111512549489865 20.27825849089888 11.689718400188394 0 -1 0
852 2 5.001733661563817 22.671042556536182 12.169985869397983 0 -1 0
244 1 7.386378983654685 20.404757542579365 11.609802145424107 0 -1 0
255 1 11.347043691451619 19.692834828626783 9.345403879013077 0 -1 0
856 2 10.867820966119211 22.87701450284231 10.986153159862114 0 -1 0
258 1 11.194726696347756 20.270392754814985 13.403386366772068 0 -1 0
788 2 17.469557029935107 23.167930165486055 11.14583189603879 -1 -1 0
256 1 14.337750348135113 21.3072351302306 11.6171045380017 0 -1 0
792 2 23.275039481949673 23.48117025052711 11.79086652718979 -1 -1 0
52 1 20.649566324974046 20.02992657168028 11.134548422412985 -1 -1 0
91 1 2.590040698086473 3.138256001603609 17.550711327607154 0 0 0
1048 3 2.576333159966563 2.833785229682624 14.528452562744599 0 0 0
252 1 5.778780227647466 3.198657344680562 14.963424673354664 0 0 0
271 1 9.157517080064459 1.8957341976363957 17.60911353634877 0 0 0
1108 3 8.737773120980192 2.595958364204014 14.720717882096006 0 0 0
264 1 11.523455812503618 2.217630641985879 14.25140690961721 0 0 0
1112 3 14.441987757966434 2.939383657866741 14.813576025702972 0 0 0
283 1 14.633076823916134 3.3696760195158815 17.67384064742491 0 0 0
60 1 17.458657473452117 3.0199597143290777 15.338367424359012 -1 0 0
263 1 14.470959233931323 0.09359414296665326 15.406156436292576 0 0 0
795 2 18.523078244568296 0.04824953539898492 17.46401452912837 -1 0 0
72 1 23.43159006368448 3.1536410961234047 14.032216382981119 -1 0 0
79 1 20.595264122179326 2.927390732913894 17.30483238488359 -1 0 0
1044 3 20.42905558702205 3.1654915477919303 14.437318382660704 -1 0 0
59 1 20.640596831700943 0.047453721298719116 14.555801710146978 -1 0 0
161 1 2.773035029425731 5.9837274389061275 14.089099928500483 0 0 0
181 1 2.8913843919771174 7.92988299824649 17.18596622430826 0 0 0
1078 3 2.5113697589702304 8.782487522008884 14.433839729787977 0 0 0
829 2 0.10728996830593375 5.667090335253151 17.38130581371035 0 0 0
341 1 8.216863042646684 5.571636810245028 14.690478455382474 0 0 0
889 2 5.715961402805494 5.358969196485501 17.623330050443013 0 0 0
1138 3 8.442168940985498 8.574742755995423 14.432796644830715 0 0 0
361 1 8.749734157210085 8.0705697509778 17.358354683693612 0 0 0
893 2 11.490965918101514 5.921676445658835 17.325252756768354 0 0 0
354 1 11.246334943038141 8.736906914944313 14.303318689391688 0 0 0
353 1 13.547678286863595 5.817931959864109 14.305423778931974 0 0 0
1142 3 14.42199642176432 8.731782002886117 14.375200118230232 0 0 0
825 2 17.590591874262667 5.538256803031236 17.83620178775711 -1 0 0
373 1 14.432094956255806 8.386291706140268 17.282957056365973 0 0 0
150 1 17.397608321361925 9.063145093670247 14.393313768669673 -1 0 0
1074 3 20.68924726023146 8.734396421498127 14.567410851814968 -1 0 0
162 1 23.325829971178724 9.01932347165608 15.693603471523021 -1 0 0
169 1 20.157999217744628 8.548759398036434 17.701695950440676 -1 0 0
167 1 2.6325735920437 11.682971446842373 15.340857207663378 0 0 0
347 1 8.345437576247779 11.53553926834342 14.292173340539255 0 0 0
891 2 5.632154920524496 10.984577527557528 17.088111916000983 0 0 0
895 2 11.437974776479237 11.362371674629703 17.68083679889165 0 0 0
359 1 14.182259361921346 11.677840170611399 14.245496267038998 0 0 0
827 2 17.127081839993174 10.931810181727862 17.31662121832583 -1 0 0
831 2 23.003834863016746 11.78104843576539 17.67166474054189 -1 0 0
155 1 20.21051772746911 11.597674431393191 13.956873937083586 -1 0 0
168 1 22.83508482200364 13.84299592919624 13.917808601441964 -1 0 0
175 1 19.833081174542894 13.926264052368538 17.73204355235714 -1 0 0
187 1 2.014506922601645 15.292752919326217 17.90499149418723 0 0 0
65 1 2.50845469845588 17.31319590525066 14.668685381354345 0 -1 0
1080 3 2.281124280249979 14.449750618323785 14.961930504208375 0 0 0
348 1 5.425912800263215 14.132716900160526 14.883208624519801 0 0 0
367 1 9.386156239102103 15.346475109781418 17.464040480050194 0 0 0
245 1 7.807648866874615 17.19444151641979 14.29884512627727 0 -1 0
1140 3 8.439039597538457 14.51289059713122 14.759131954031252 0 0 0
857 2 5.447939692705739 16.878020174242717 17.53267129409466 0 -1 0
360 1 11.28131927677617 14.300006628570749 14.243946104113514 0 0 0
861 2 11.963184462055361 17.607598796840755 17.42173607858029 0 -1 0
257 1 14.175749085819799 18.003110475674166 14.573209904360292 0 -1 0
1144 3 14.184753105344175 14.873926654995026 14.350611130388176 0 0 0
156 1 17.235484655801805 14.807236423391013 14.452742572730012 -1 0 0
379 1 14.284431493883307 14.711757107089163 17.315933495849613 0 0 0
793 2 17.176754740327542 17.64647631729398 16.69480771518444 -1 -1 0
797 2 22.680083301776463 17.433288843096907 17.826567481575943 -1 -1 0
53 1 20.275336690936037 17.466866578993614 15.272999785449281 -1 -1 0
1076 3 19.98469411635414 14.277799210597546 14.697174238086033 -1 0 0
799 2 0.18248805092492051 23.43243764536694 17.771355718293467 0 -1 0
71 1 2.7460899118249964 23.494392874832503 14.667255066734917 0 -1 0
85 1 1.8322119756545148 20.12019391629563 17.305149466913367 0 -1 0
1046 3 2.6509401805764976 20.171631386414486 14.643342571209537 0 -1 0
859 2 6.430906457914818 23.347002413725242 17.27513680849393 0 -1 0
251 1 8.78323880831569 23.076483011539388 14.479749941114834 0 -1 0
246 1 5.609800432235629 20.663541405732918 15.120764312046127 0 -1 0
265 1 9.291129425566874 20.904264958594776 17.583133178010712 0 -1 0
1106 3 8.558937817112072 20.274121502122682 14.762330825055487 0 -1 0
863 2 12.46934550051287 23.01531091199221 18.20819619900251 0 -1 0
277 1 15.271447595047784 20.5898275991285 17.75914522099797 0 -1 0
1110 3 14.156145897761279 20.93786344782576 14.585038912036499 0 -1 0
54 1 17.28544641231572 20.84137623583272 14.040579291794668 -1 -1 0
66 1 23.27538496404557 20.402141358713337 14.034940112790819 -1 -1 0
73 1 20.52639403456211 20.928442930054988 17.25333683390237 -1 -1 0
1042 3 20.527221442714414 20.137771684541285 14.407574401199383 -1 -1 0
1055 3 3.1346355122761653 2.0955331859026467 20.747739798451157 0 0 0
273 1 5.909814674714427 1.6785671086037548 20.582205130896046 0 0 0
1115 3 8.838327140831726 2.5398938507244067 20.49293189457417 0 0 0
285 1 11.9011558736811 2.8532306904640694 20.132519989356286 0 0 0
1119 3 14.617008954199129 2.7583986261785203 20.647771804927075 0 0 0
81 1 17.83968466629487 2.135850853475577 20.953456359544244 -1 0 0
93 1 23.456609871978518 3.041745796567143 20.2782738631004 -1 0 0
1051 3 20.566149457626654 2.7698979911269843 20.26246705737163 -1 0 0
80 1 20.979085025742158 0.03416049234300182 20.686756494866234 -1 0 0
182 1 3.952694212880086 5.7148989001431785 20.7310800593569 0 0 0
1085 3 2.7832345149242554 8.454707113239463 20.719638867152216 0 0 0
183 1 0.12241283894162984 8.164245246787246 20.650796508849172 0 0 0
362 1 8.62643501723846 5.293496137748917 20.117644510667645 0 0 0
1145 3 8.734210867959797 8.24889253319229 20.422288381114644 0 0 0
363 1 5.92737643476208 9.267214878899285 20.397412329288972 0 0 0
375 1 11.733622086437641 8.105753221383221 20.8626585437468 0 0 0
374 1 14.963664759966779 5.495552232136999 20.406338824362535 0 0 0
1149 3 14.401299546773295 8.5232859841713 20.189309561212525 0 0 0
171 1 17.460858602995394 8.837336044011534 20.741165889489444 -1 0 0
170 1 20.347096355048386 5.77299230752304 20.61884904480464 -1 0 0
1081 3 20.734585895073085 8.765254932769617 20.638525266016845 -1 0 0
188 1 2.661236280724881 11.436135046558663 19.94676998418564 0 0 0
368 1 8.880086162490318 11.488112843933115 20.06755343307907 0 0 0
369 1 5.88338132062712 13.976200097500094 19.664643527564724 0 0 0
381 1 11.66496363782176 14.087820737762229 20.855349040835737 0 0 0
380 1 14.490892897287521 11.460042438342002 19.611133970353166 0 0 0
177 1 17.606600377650587 14.021510002067675 20.448939131708364 -1 0 0
176 1 21.27870877701584 11.695860582112646 20.964641376238657 -1 0 0
86 1 3.37778773857919 17.187241773714707 21.165430513014012 0 -1 0
1087 3 2.8691316384189913 14.33731628630809 20.646851113618716 0 0 0
266 1 8.324086133080886 17.60235526307656 20.656632973440193 0 -1 0
1147 3 8.669966832894112 14.33208587946349 20.181445275949745 0 0 0
370 1 8.273061312907458 14.622528463583185 23.03905933349818 0 0 0
1151 3 14.376529802499023 14.52087379034343 20.458731623373513 0 0 0
278 1 15.172582841482239 17.330446955410444 20.537599690890968 0 -1 0
794 2 17.698826471371426 17.39953340594572 23.089929404143177 -1 -1 0
189 1 23.395988630985627 14.928863686554473 21.114600935850124 -1 0 0
74 1 19.72241070160861 17.674293218310844 19.90085989921185 -1 -1 0
1083 3 20.37373798717882 14.610708698419906 20.47611448389741 -1 0 0
92 1 2.6687969498120263 22.65827675298231 20.644212668838247 0 -1 0
1053 3 2.912479542233456 19.964892609803023 20.342357784627925 0 -1 0
272 1 9.22540593149289 23.182403798945572 20.492916956877156 0 -1 0
267 1 5.791453996630763 20.205277337880634 19.36517246103625 0 -1 0
1113 3 8.62450056357172 20.23217051671427 20.310161976112855 0 -1 0
279 1 11.696862033730056 19.980494925300597 20.43820932410394 0 -1 0
284 1 14.13395095856216 23.146367566639988 21.2990641055545 0 -1 0
1117 3 14.849780429303456 20.463229053032208 20.487775002283694 0 -1 0
75 1 17.75829167133268 21.531312719150318 20.644261067426974 -1 -1 0
87 1 23.368272466935025 19.97048097068926 20.68931241185523 -1 -1 0
1049 3 20.532393021133988 20.249482725091674 20.439933730782766 -1 -1 0
94 1 2.7859717822172034 2.487355785591194 23.531794075241468 0 0 0
1056 3 3.1844651153614003 2.7490766437829977 26.312187579013624 0 0 0
276 1 5.996983527593175 2.7888976492033457 25.346468793293997 0 0 0
1116 3 8.893940376550509 2.5413531636471602 26.304561044850836 0 0 0
274 1 9.206987626796128 1.9954072288519118 23.473413263130002 0 0 0
288 1 11.83767848612718 3.0248030762911826 26.351787623541743 0 0 0
286 1 14.245047202798398 2.9960770462679887 23.905580145959398 0 0 0
1120 3 14.869293058146518 2.608150945138292 26.751524082256847 0 0 0
84 1 17.93414471207978 3.429998359782475 26.463575076147848 -1 0 0
82 1 20.612020594113332 2.7513091162514214 23.335082295530274 -1 0 0
96 1 23.173108048688086 1.1549671963852803 25.73626321669945 -1 0 0
1052 3 20.646237964934247 2.469684620412922 26.37015456766834 -1 0 0
185 1 2.0259755931576664 5.473147759994031 26.03853063716336 0 0 0
1086 3 3.0888223890039965 8.291652858789115 26.76712807651622 0 0 0
184 1 3.1830476505283394 8.813184625397216 23.43513186746199 0 0 0
186 1 0.3177444777619845 8.659787488654716 27.31425790547851 0 0 0
890 2 5.904829791836461 6.118604800330892 23.575751647975192 0 0 0
366 1 6.059673811178952 9.357199952306761 26.16499775510647 0 0 0
364 1 8.895051255537979 9.010423059791796 23.266057388103302 0 0 0
365 1 8.800387509141153 5.721557976097012 25.74945638045024 0 0 0
1146 3 8.807573312506204 8.98194025019163 26.072996004028163 0 0 0
894 2 11.703877789303508 5.072464282091213 23.140525898468738 0 0 0
378 1 12.076669845973067 8.839550200227228 26.214480903632236 0 0 0
377 1 14.664542534616505 5.42169583461724 27.492434957193367 0 0 0
376 1 14.491817625040861 7.4819924917276905 23.535315526347816 0 0 0
1150 3 15.009920569709575 8.52676740624684 26.747934130305307 0 0 0
826 2 17.943629535679197 6.1675304191280516 23.354886695774677 -1 0 0
174 1 17.880017587420497 7.95465014697648 26.414951164914413 -1 0 0
830 2 23.40485567838153 4.999502155848896 23.25746468263718 -1 0 0
173 1 21.261157357340426 5.287960395777668 26.272698154717318 -1 0 0
172 1 21.568323821981867 8.299052198097039 23.59161131212562 -1 0 0
1082 3 20.86422953541477 8.485507060279629 26.355628325476356 -1 0 0
191 1 2.915454959890068 11.753376226998718 26.112883162932853 0 0 0
832 2 0.20192757451285956 11.527864225603107 23.929820862839478 0 0 0
892 2 6.462030922498562 11.686562067041203 23.30813556367904 0 0 0
371 1 9.15108807671348 12.073757718953063 26.090606882934722 0 0 0
896 2 11.984063405102727 11.356182003321416 23.549281022703838 0 0 0
828 2 17.93406027573858 11.386548070910973 23.330111865835445 -1 0 0
383 1 15.639531275987688 11.260812783923223 25.617762837286964 0 0 0
179 1 20.700023530950666 11.3763830916529 25.661670110875455 -1 0 0
192 1 23.029112044329995 14.002732016341849 27.520717852597432 -1 0 0
190 1 2.4863991577826137 14.327138907172799 23.903571889207488 0 0 0
89 1 1.9574650614889473 17.434256257802737 26.420252436050422 0 -1 0
1088 3 3.294029800770963 14.620008279043299 26.92534161799731 0 0 0
858 2 5.333226532497987 16.988093240134905 24.135687465657863 0 -1 0
268 1 8.850126734148777 17.46048547199259 25.289040750942245 0 -1 0
372 1 6.042601914911468 14.479459026901022 26.464711495515257 0 0 0
1148 3 9.33250099623849 14.57275584438278 27.003014640877076 0 0 0
862 2 11.65506212252987 17.758859295320555 23.201509021212512 0 -1 0
384 1 11.647738868065693 15.151166751812253 25.620300840020782 0 0 0
382 1 14.273666136089986 14.247777258951237 23.45677173224418 0 0 0
674 1 15.094134531981156 16.85332173412343 27.33997972478541 0 0 0
1152 3 14.982194285408593 14.206932806432741 26.523303341012546 0 0 0
180 1 17.345047146867245 14.665003965919786 25.49982802783746 -1 0 0
798 2 22.978586512038735 17.911175367849502 23.61398264077983 -1 -1 0
178 1 20.470289375098858 14.534841969842901 23.42383833142188 -1 0 0
77 1 20.365037940613874 17.286928584108477 26.64428903780587 -1 -1 0
1084 3 20.33239795973899 14.290325266451054 26.686744855750586 -1 0 0
95 1 3.512176763396088 23.285243822100217 26.82486153342512 0 -1 0
88 1 3.6056699557985223 20.20249021952682 23.21819726651158 0 -1 0
1054 3 2.7544588612794003 20.220023693375705 25.885094518079395 0 -1 0
860 2 6.490520166219659 22.720842112738538 23.751905460840575 0 -1 0
275 1 9.239249394147992 20.69813269133742 23.354132415567136 0 -1 0
270 1 5.868267898846713 20.59997469638241 26.569643158239344 0 -1 0
1114 3 8.883759746603799 20.06666196651952 26.51789715108581 0 -1 0
595 1 9.171424029493709 23.10954318594851 26.267347026324934 0 -1 0
864 2 11.96473687444283 23.269079610787237 24.22406475497744 0 -1 0
282 1 11.714057349143827 20.05010115403919 26.577858573251408 0 -1 0
796 2 17.384462754360936 23.290781235453398 23.765801344088732 -1 -1 0
280 1 14.71252956718803 23.11503675377248 26.71066643571054 0 -1 0
78 1 17.121531214852588 19.659822153797307 25.20126975267982 -1 -1 0
281 1 14.118270962355181 20.022984207782933 23.767404257226016 0 -1 0
1118 3 14.675250097827066 19.766427144608304 26.759726767217973 0 -1 0
800 2 23.35555636207202 22.305681992901814 23.159347563370144 -1 -1 0
83 1 20.532368689266313 22.901137192903725 25.95031460654334 -1 -1 0
76 1 20.08102593500909 19.711762966068243 23.38975632993938 -1 -1 0
1050 3 19.644052461833386 20.184097729606517 26.874998037815853 -1 -1 0
90 1 23.457395264459336 20.270306665048054 25.824536961782442 -1 -1 0
579 1 1.884057229125098 2.4209870446131894 29.451084722187023 0 0 0
391 1 6.278523103703401 0.7823630278311395 30.517303395998088 0 0 0
998 2 9.208932776224488 0.35143101504199026 31.54688034282382 0 0 0
898 2 4.96824517211193 4.0672408533566875 31.04442740351561 0 0 0
600 1 10.185787001838074 3.356390290559639 30.923974567710612 0 0 0
1223 3 12.920020771489426 3.1246313397310526 31.941539089092583 0 0 0
578 1 15.346842259070675 2.2795753037070106 29.869591094134044 0 0 0
934 2 18.252553210185184 2.0538426748102623 32.005928569005135 -1 0 0
408 1 21.692269562611425 1.753572275232384 29.778846645267794 -1 0 0
488 1 0.22355944673619196 7.804782882423102 31.632553922543607 0 0 0
932 2 4.492606432061134 8.443415203165141 32.01850684620658 0 0 0
933 2 0.03694207083502445 5.236661068752747 29.37049780179812 0 0 0
500 1 4.812104189194297 6.396597454002331 28.73818159022304 0 0 0
583 1 7.387377356591584 6.094936813928964 31.4769489063387 0 0 0
997 2 10.279320837522677 6.206532023971703 29.03090369984984 0 0 0
684 1 13.926243262385562 5.995198816845055 30.907375667814797 0 0 0
685 1 10.926486602447683 8.869993483144732 32.00233859636762 0 0 0
962 2 17.256116886537214 6.721059557765134 29.53934255084173 0 0 0
493 1 20.57568293025077 5.752786877395733 30.422668895167945 -1 0 0
1185 3 21.105527660244267 8.159785206003518 32.18111421082545 -1 0 0
675 1 3.8191075451082894 10.080257418228395 29.39889272671614 0 0 0
482 1 3.722968723185155 13.570399151269921 29.522505564940406 0 0 0
902 2 0.4279971624382818 11.15371903276563 29.73472818599286 0 -1 0
494 1 8.433378849824427 9.637048509644075 28.920861545035343 0 0 0
1251 3 5.346046912798982 11.665184995977793 27.82248433776004 0 0 0
1252 3 9.202469432581568 11.957545996966866 30.83840818435366 0 0 0
696 1 7.59562955148957 14.022509481593811 29.57746492737896 0 0 0
683 1 7.210462375395749 10.591810303108666 32.262482317576726 0 0 0
1255 3 12.989744900309551 11.446141621561821 30.79591550592007 0 0 0
489 1 11.530255292029182 12.753315231507443 28.70655044872919 0 0 0
692 1 15.422556598325196 9.961581617624994 29.49070093286935 0 0 0
1187 3 18.360172591562005 12.136010054122425 29.316586890328317 -1 0 0
691 1 15.845318121745093 13.57911312031646 29.732523052787013 0 0 0
681 1 18.890281931452915 11.760947317538452 31.998873599470862 0 0 0
484 1 20.751578351180203 9.506002771757812 29.535705412857272 -1 0 0
398 1 2.458709422028978 16.194956424574308 32.20635956359132 0 -1 0
930 2 6.116347124406215 17.60710812438952 29.030905737118818 0 0 0
269 1 10.515390547960726 17.463579602753093 28.869952283195943 0 -1 0
965 2 12.936177054399725 16.347274104726964 31.247835940665585 0 -1 0
994 2 17.61199807096057 17.292540629340163 30.210417436985146 0 0 0
901 2 23.059839448007242 17.455000228731215 29.270430368200007 -1 -1 0
504 1 19.909720537660284 14.964513863394355 29.46725389736828 -1 0 0
499 1 22.822023261037874 14.448941102957997 31.590969426859203 -1 0 0
386 1 1.4704712881508475 21.988173668922776 30.902121457124196 0 -1 0
404 1 2.9041731277664704 19.091104834079783 29.67491089656412 0 -1 0
1219 3 5.032201870569902 22.122993330656193 29.55119266872586 0 -1 0
401 1 7.674592617742386 20.80660569913087 29.61222084346186 0 -1 0
590 1 14.064457180639815 19.982149339271032 29.627910070128415 0 -1 0
287 1 12.544959524668666 23.091940930318643 30.88806200053367 0 -1 0
589 1 11.436940882356549 19.262779009841882 32.28466527354736 0 -1 0
1221 3 10.958993567452708 20.186459699033886 29.69340989222107 0 -1 0
1155 3 15.271200223990162 22.90767407189985 29.856222192674583 -1 -1 0
397 1 17.30239968316497 20.758225906005585 28.72607658461916 -1 -1 0