LAMMPS (29 Aug 2024 - Development - 6d634dc-modified)
OMP_NUM_THREADS environment is not set. Defaulting to 1 thread. (src/comm.cpp:99)
  using 1 OpenMP thread(s) per MPI task
units	metal
atom_style atomic
dimension 3
newton off

boundary p p p

read_data data.CPBr
Reading data file ...
  triclinic box = (0 0 0) to (23.496 23.496 97) with tilt (0 0 0)
  1 by 1 by 1 MPI processor grid
  reading atoms ...
  1280 atoms
  read_data CPU = 0.006 seconds

variable        p_id world   1

variable        temperature equal 950.0
variable        temperature2 equal 950.0
variable        tempDamp equal 100.0 # approx 0.1 ps

variable        pressure equal 1.00
variable        pressureDamp equal 500.0

variable        seed world 1428

mass            1 79.904     # Br
mass            2 132.904999 # Cs
mass            3 207.199997 # Pb

# allegro pair style
pair_style	nequip
pair_coeff	* * ./best.pth Br Cs Pb

neighbor 1.0 bin
neigh_modify delay 5 every 1

#write_dump all custom output.dump id type x y z fx fy fz
#
variable freq equal 100
#variable dt equal 0.001

thermo          ${freq}
thermo          100
thermo_style    custom step temp pe ke etotal press lx ly lz xy xz yz
restart         ${freq} restart.0 restart.2
restart         100 restart.0 restart.2

#minimize 0.0 1.0e-3 100 10000

# NVT

dump            myDump1 all atom 500 out.0.lammpstrj
fix             1 all temp/csvr ${temperature} ${temperature} $(100.0*dt) ${seed}
fix             1 all temp/csvr 950 ${temperature} $(100.0*dt) ${seed}
fix             1 all temp/csvr 950 950 $(100.0*dt) ${seed}
fix             1 all temp/csvr 950 950 0.10000000000000000555 ${seed}
fix             1 all temp/csvr 950 950 0.10000000000000000555 1428
fix             2 all nve
timestep        0.002
velocity        all create ${temperature} ${seed} dist gaussian
velocity        all create 950 ${seed} dist gaussian
velocity        all create 950 1428 dist gaussian
run             10000

CITE-CITE-CITE-CITE-CITE-CITE-CITE-CITE-CITE-CITE-CITE-CITE-CITE

Your simulation uses code contributions which should be cited:

- Type Label Framework: https://doi.org/10.1021/acs.jpcb.3c08419

@Article{Gissinger24,
 author = {Jacob R. Gissinger, Ilia Nikiforov, Yaser Afshar, Brendon Waters, Moon-ki Choi, Daniel S. Karls, Alexander Stukowski, Wonpil Im, Hendrik Heinz, Axel Kohlmeyer, and Ellad B. Tadmor},
 title = {Type Label Framework for Bonded Force Fields in LAMMPS},
 journal = {J. Phys. Chem. B},
 year =    2024,
 volume =  128,
 number =  13,
 pages =   {3282--3297}
}

CITE-CITE-CITE-CITE-CITE-CITE-CITE-CITE-CITE-CITE-CITE-CITE-CITE

Neighbor list info ...
  update: every = 1 steps, delay = 5 steps, check = yes
  max neighbors/atom: 2000, page size: 100000
  master list distance cutoff = 9
  ghost atom cutoff = 9
  binsize = 4.5, bins = 6 6 22
  1 neighbor lists, perpetual/occasional/extra = 1 0 0
  (1) pair nequip, perpetual
      attributes: full, newton off
      pair build: full/bin/atomonly
      stencil: full/bin/3d
      bin: standard
Per MPI rank memory allocation (min/avg/max) = 3.23 | 3.23 | 3.23 Mbytes
   Step          Temp          PotEng         KinEng         TotEng         Press            Lx             Ly             Lz             Xy             Xz             Yz      
         0   950           -32240.851      157.05754     -32083.793      11717.274      23.496         23.496         97             0              0              0            
       100   1026.9894     -32299.297      169.78571     -32129.511      11401.362      23.496         23.496         97             0              0              0            
       200   982.3384      -32323.179      162.40384     -32160.775      7685.6681      23.496         23.496         97             0              0              0            
       300   978.59547     -32338.123      161.78505     -32176.338      8169.7167      23.496         23.496         97             0              0              0            
       400   989.43647     -32346.483      163.57732     -32182.906      7272.9721      23.496         23.496         97             0              0              0            
       500   952.49896     -32345.951      157.47068     -32188.48       6553.1682      23.496         23.496         97             0              0              0            
       600   955.2679      -32349.845      157.92845     -32191.916      7956.6917      23.496         23.496         97             0              0              0            
       700   954.40359     -32350.367      157.78556     -32192.581      8322.8899      23.496         23.496         97             0              0              0            
       800   953.0329      -32345.955      157.55895     -32188.396      9351.7024      23.496         23.496         97             0              0              0            
       900   970.93763     -32349.163      160.51903     -32188.644      8236.323       23.496         23.496         97             0              0              0            
      1000   932.4562      -32346.368      154.15713     -32192.211      8334.9631      23.496         23.496         97             0              0              0            
      1100   906.81662     -32344.399      149.9183      -32194.481      9360.5829      23.496         23.496         97             0              0              0            
      1200   936.58959     -32346.339      154.84048     -32191.499      8786.0622      23.496         23.496         97             0              0              0            
      1300   932.94879     -32345.086      154.23857     -32190.847      8890.2259      23.496         23.496         97             0              0              0            
      1400   923.56265     -32340.999      152.68682     -32188.313      8601.6238      23.496         23.496         97             0              0              0            
      1500   962.96215     -32346.973      159.20049     -32187.773      8640.2986      23.496         23.496         97             0              0              0            
      1600   958.41445     -32351.904      158.44865     -32193.455      8665.7197      23.496         23.496         97             0              0              0            
      1700   944.66735     -32353.971      156.17593     -32197.795      8546.2051      23.496         23.496         97             0              0              0            
      1800   938.06692     -32353.652      155.08472     -32198.567      7783.4185      23.496         23.496         97             0              0              0            
      1900   973.9812      -32353.496      161.0222      -32192.474      8221.1643      23.496         23.496         97             0              0              0            
      2000   1007.8311     -32352.437      166.61839     -32185.818      7584.2751      23.496         23.496         97             0              0              0            
      2100   949.00772     -32351.944      156.89349     -32195.05       6593.19        23.496         23.496         97             0              0              0            
      2200   1008.9856     -32351.53       166.80926     -32184.72       6784.7197      23.496         23.496         97             0              0              0            
      2300   972.46482     -32350.309      160.77151     -32189.538      7493.5859      23.496         23.496         97             0              0              0            
      2400   928.13317     -32353.371      153.44243     -32199.929      5621.671       23.496         23.496         97             0              0              0            
      2500   942.25529     -32348.595      155.77715     -32192.818      6923.562       23.496         23.496         97             0              0              0            
      2600   982.35722     -32355.983      162.40695     -32193.576      6809.3536      23.496         23.496         97             0              0              0            
      2700   965.0599      -32350.756      159.5473      -32191.208      6629.4248      23.496         23.496         97             0              0              0            
      2800   976.68906     -32349.529      161.46987     -32188.059      6718.0207      23.496         23.496         97             0              0              0            
      2900   996.609       -32353.504      164.76311     -32188.741      7997.3012      23.496         23.496         97             0              0              0            
      3000   951.84653     -32356.513      157.36281     -32199.15       6691.4518      23.496         23.496         97             0              0              0            
      3100   944.95703     -32356.376      156.22382     -32200.152      6867.305       23.496         23.496         97             0              0              0            
      3200   956.02374     -32352.836      158.05341     -32194.782      6704.9643      23.496         23.496         97             0              0              0            
      3300   959.62153     -32355.135      158.64821     -32196.487      7416.5876      23.496         23.496         97             0              0              0            
      3400   927.31962     -32354.842      153.30793     -32201.534      7567.1656      23.496         23.496         97             0              0              0            
      3500   956.23708     -32353.614      158.08868     -32195.525      7353.6787      23.496         23.496         97             0              0              0            
      3600   968.19256     -32346.549      160.0652      -32186.484      8569.5952      23.496         23.496         97             0              0              0            
      3700   946.9673      -32347.748      156.55616     -32191.192      7942.5611      23.496         23.496         97             0              0              0            
      3800   915.45661     -32349.915      151.3467      -32198.568      7935.3371      23.496         23.496         97             0              0              0            
      3900   927.36096     -32356.667      153.31477     -32203.353      6668.1509      23.496         23.496         97             0              0              0            
      4000   953.05876     -32353.562      157.56322     -32195.999      8242.9116      23.496         23.496         97             0              0              0            
      4100   951.64114     -32357.63       157.32886     -32200.301      8460.881       23.496         23.496         97             0              0              0            
      4200   924.96873     -32356.779      152.91928     -32203.86       7101.5438      23.496         23.496         97             0              0              0            
      4300   942.23348     -32359.019      155.77355     -32203.245      6367.8125      23.496         23.496         97             0              0              0            
      4400   917.63058     -32354.39       151.70611     -32202.684      6754.2094      23.496         23.496         97             0              0              0            
      4500   942.82359     -32360.618      155.87111     -32204.747      6407.5268      23.496         23.496         97             0              0              0            
      4600   948.03419     -32354.451      156.73254     -32197.718      6832.3126      23.496         23.496         97             0              0              0            
      4700   965.67868     -32355.793      159.6496      -32196.143      5892.1851      23.496         23.496         97             0              0              0            
      4800   978.35285     -32355.779      161.74494     -32194.034      6307.264       23.496         23.496         97             0              0              0            
      4900   932.4597      -32349.65       154.15771     -32195.493      7155.3841      23.496         23.496         97             0              0              0            
      5000   974.46187     -32354.351      161.10167     -32193.249      6432.0267      23.496         23.496         97             0              0              0            
      5100   978.93332     -32356.412      161.8409      -32194.572      5983.4709      23.496         23.496         97             0              0              0            
      5200   938.37244     -32352.786      155.13523     -32197.651      6362.8389      23.496         23.496         97             0              0              0            
      5300   948.94592     -32348.674      156.88328     -32191.791      6782.1714      23.496         23.496         97             0              0              0            
      5400   979.62367     -32359.081      161.95503     -32197.126      6294.2696      23.496         23.496         97             0              0              0            
      5500   935.02762     -32357.276      154.58225     -32202.694      6793.6033      23.496         23.496         97             0              0              0            
      5600   957.55963     -32358.008      158.30733     -32199.701      6411.6982      23.496         23.496         97             0              0              0            
      5700   935.69741     -32359.158      154.69298     -32204.465      5823.3889      23.496         23.496         97             0              0              0            
      5800   909.73719     -32354.915      150.40114     -32204.514      7088.3308      23.496         23.496         97             0              0              0            
      5900   905.07168     -32354.171      149.62982     -32204.541      6916.7008      23.496         23.496         97             0              0              0            
      6000   937.0158      -32362.486      154.91094     -32207.575      6962.0881      23.496         23.496         97             0              0              0            
      6100   968.38879     -32364.9        160.09764     -32204.802      7438.5446      23.496         23.496         97             0              0              0            
      6200   982.51643     -32363.113      162.43328     -32200.68       7019.4029      23.496         23.496         97             0              0              0            
      6300   961.92333     -32358.433      159.02875     -32199.404      5908.4185      23.496         23.496         97             0              0              0            
      6400   949.75927     -32355.666      157.01774     -32198.648      6915.5964      23.496         23.496         97             0              0              0            
      6500   974.02642     -32360.478      161.02968     -32199.448      5968.8936      23.496         23.496         97             0              0              0            
      6600   955.14754     -32356.78       157.90855     -32198.871      6492.5711      23.496         23.496         97             0              0              0            
      6700   963.38738     -32365.132      159.27079     -32205.861      6973.3501      23.496         23.496         97             0              0              0            
      6800   930.77283     -32354.607      153.87883     -32200.729      6746.5745      23.496         23.496         97             0              0              0            
      6900   965.04524     -32362.223      159.54488     -32202.678      6981.2205      23.496         23.496         97             0              0              0            
      7000   909.83576     -32349.35       150.41744     -32198.933      8027.9801      23.496         23.496         97             0              0              0            
      7100   943.61977     -32354.382      156.00274     -32198.379      7055.561       23.496         23.496         97             0              0              0            
      7200   966.56657     -32349.273      159.79639     -32189.476      8314.738       23.496         23.496         97             0              0              0            
      7300   952.66286     -32354.588      157.49777     -32197.09       8419.8757      23.496         23.496         97             0              0              0            
      7400   928.15967     -32350.264      153.44681     -32196.817      7120.038       23.496         23.496         97             0              0              0            
      7500   946.02645     -32352.327      156.40062     -32195.927      6901.4305      23.496         23.496         97             0              0              0            
      7600   941.90492     -32359.393      155.71923     -32203.674      6596.9447      23.496         23.496         97             0              0              0            
      7700   920.95246     -32354.891      152.25529     -32202.635      6996.3266      23.496         23.496         97             0              0              0            
      7800   901.31546     -32357.386      149.00883     -32208.377      7541.413       23.496         23.496         97             0              0              0            
      7900   923.29667     -32355.303      152.64285     -32202.66       5809.7151      23.496         23.496         97             0              0              0            
      8000   915.17196     -32355.37       151.29964     -32204.07       6425.1722      23.496         23.496         97             0              0              0            
      8100   953.78453     -32351.113      157.68321     -32193.43       6782.9425      23.496         23.496         97             0              0              0            
      8200   966.73327     -32358.65       159.82395     -32198.826      6862.123       23.496         23.496         97             0              0              0            
      8300   934.45919     -32358.302      154.48827     -32203.814      5477.9206      23.496         23.496         97             0              0              0            
      8400   930.14404     -32348.532      153.77488     -32194.757      6856.0167      23.496         23.496         97             0              0              0            
      8500   991.35923     -32359.648      163.8952      -32195.753      7688.2346      23.496         23.496         97             0              0              0            
      8600   949.80056     -32352.814      157.02457     -32195.79       7580.1909      23.496         23.496         97             0              0              0            
      8700   930.63532     -32357.17       153.8561      -32203.314      6989.7781      23.496         23.496         97             0              0              0            
      8800   947.42114     -32357.681      156.63119     -32201.05       6796.0725      23.496         23.496         97             0              0              0            
      8900   933.89858     -32360.467      154.39559     -32206.071      7065.6888      23.496         23.496         97             0              0              0            
      9000   935.84937     -32360.361      154.7181      -32205.643      6715.1222      23.496         23.496         97             0              0              0            
      9100   940.69233     -32355.646      155.51876     -32200.127      6126.5894      23.496         23.496         97             0              0              0            
      9200   926.10065     -32360.802      153.10641     -32207.696      6598.7389      23.496         23.496         97             0              0              0            
      9300   964.45703     -32365.08       159.44763     -32205.632      5488.2403      23.496         23.496         97             0              0              0            
      9400   946.76335     -32358.065      156.52244     -32201.543      6622.7977      23.496         23.496         97             0              0              0            
      9500   981.2777      -32362.882      162.22849     -32200.654      6071.6933      23.496         23.496         97             0              0              0            
      9600   966.06313     -32359.808      159.71316     -32200.095      5445.8886      23.496         23.496         97             0              0              0            
      9700   935.99422     -32362.291      154.74205     -32207.548      6423.9274      23.496         23.496         97             0              0              0            
      9800   941.52726     -32357.75       155.65679     -32202.093      5417.7623      23.496         23.496         97             0              0              0            
      9900   945.45948     -32361.408      156.30688     -32205.101      6136.0061      23.496         23.496         97             0              0              0            
     10000   950.20265     -32359.413      157.09104     -32202.322      6361.867       23.496         23.496         97             0              0              0            
Loop time of 1284.55 on 1 procs for 10000 steps with 1280 atoms

Performance: 1.345 ns/day, 17.841 hours/ns, 7.785 timesteps/s, 9.965 katom-step/s
99.3% CPU use with 1 MPI tasks x 1 OpenMP threads

MPI task timing breakdown:
Section |  min time  |  avg time  |  max time  |%varavg| %total
---------------------------------------------------------------
Pair    | 1281.8     | 1281.8     | 1281.8     |   0.0 | 99.79
Neigh   | 2.0503     | 2.0503     | 2.0503     |   0.0 |  0.16
Comm    | 0.14417    | 0.14417    | 0.14417    |   0.0 |  0.01
Output  | 0.19775    | 0.19775    | 0.19775    |   0.0 |  0.02
Modify  | 0.25412    | 0.25412    | 0.25412    |   0.0 |  0.02
Other   |            | 0.06455    |            |       |  0.01

Nlocal:           1280 ave        1280 max        1280 min
Histogram: 1 0 0 0 0 0 0 0 0 0
Nghost:           3576 ave        3576 max        3576 min
Histogram: 1 0 0 0 0 0 0 0 0 0
Neighs:              0 ave           0 max           0 min
Histogram: 1 0 0 0 0 0 0 0 0 0
FullNghs:        92114 ave       92114 max       92114 min
Histogram: 1 0 0 0 0 0 0 0 0 0

Total # of neighbors = 92114
Ave neighs/atom = 71.964062
Neighbor list builds = 585
Dangerous builds = 0
unfix           1
unfix           2
write_data      data.NVT
System init for write_data ...
undump          myDump1
reset_timestep  0

# NPT
dump            myDump3 all atom 10000 out.1.lammpstrj
fix             1 all temp/csvr ${temperature} ${temperature2} $(500.0*dt) ${seed}
fix             1 all temp/csvr 950 ${temperature2} $(500.0*dt) ${seed}
fix             1 all temp/csvr 950 950 $(500.0*dt) ${seed}
fix             1 all temp/csvr 950 950 1 ${seed}
fix             1 all temp/csvr 950 950 1 1428
fix             2 all nph z ${pressure} ${pressure} $(500.0*dt)
fix             2 all nph z 1 ${pressure} $(500.0*dt)
fix             2 all nph z 1 1 $(500.0*dt)
fix             2 all nph z 1 1 1
fix             3 all momentum 10000 linear 1 1 1
run             500000000
Per MPI rank memory allocation (min/avg/max) = 3.23 | 3.23 | 3.23 Mbytes
   Step          Temp          PotEng         KinEng         TotEng         Press            Lx             Ly             Lz             Xy             Xz             Yz      
         0   950.20265     -32359.413      157.09104     -32202.322      6361.8685      23.496         23.496         97             0              0              0            
       100   894.71233     -32353.022      147.91718     -32205.105      2997.4817      23.496         23.496         99.467837      0              0              0            
       200   882.63074     -32351.16       145.9198      -32205.24       2326.1497      23.496         23.496         101.09436      0              0              0            
       300   901.76654     -32352.613      149.0834      -32203.53       1385.2436      23.496         23.496         101.46562      0              0              0            
       400   924.34356     -32352.65       152.81592     -32199.835      2206.3652      23.496         23.496         101.35682      0              0              0            
       500   957.32036     -32357.358      158.26777     -32199.09       2845.1715      23.496         23.496         101.59584      0              0              0            
       600   913.2172      -32350.581      150.97647     -32199.605      2010.1408      23.496         23.496         102.51359      0              0              0            
       700   900.3802      -32346.357      148.85421     -32197.503      1041.8341      23.496         23.496         103.47519      0              0              0            
       800   934.04854     -32350.824      154.42039     -32196.404      1696.7317      23.496         23.496         103.33957      0              0              0            
       900   926.15325     -32347.511      153.1151      -32194.396      1305.8549      23.496         23.496         103.78878      0              0              0            
      1000   914.99803     -32347.52       151.27088     -32196.249      975.75998      23.496         23.496         104.67717      0              0              0            
      1100   919.52722     -32350.065      152.01967     -32198.045      1570.6261      23.496         23.496         104.37383      0              0              0            
      1200   900.70949     -32345.991      148.90865     -32197.082      1246.7814      23.496         23.496         104.97562      0              0              0            
      1300   879.30056     -32342.664      145.36924     -32197.295      837.60159      23.496         23.496         105.78482      0              0              0            
      1400   894.18673     -32342.189      147.83028     -32194.359      1566.7482      23.496         23.496         105.54922      0              0              0            
      1500   919.98744     -32345.024      152.09575     -32192.929      1367.2119      23.496         23.496         105.66217      0              0              0            
      1600   910.30969     -32344.143      150.49579     -32193.647      860.90831      23.496         23.496         106.09301      0              0              0            
      1700   913.49549     -32345.134      151.02248     -32194.112      653.28808      23.496         23.496         106.05287      0              0              0            
      1800   911.66184     -32344.068      150.71933     -32193.349      1609.6143      23.496         23.496         105.57961      0              0              0            
      1900   919.6361      -32341.759      152.03767     -32189.721      389.21813      23.496         23.496         106.25372      0              0              0            
      2000   925.48639     -32336.615      153.00486     -32183.61       375.47633      23.496         23.496         106.84307      0              0              0            
      2100   919.63965     -32335.756      152.03825     -32183.718      2189.4233      23.496         23.496         106.1772       0              0              0            
      2200   956.61928     -32337.271      158.15186     -32179.119      1762.5644      23.496         23.496         106.54134      0              0              0            
      2300   931.91278     -32331.204      154.06729     -32177.137      231.25782      23.496         23.496         107.68723      0              0              0            
      2400   939.97615     -32335.235      155.40036     -32179.835      403.4087       23.496         23.496         107.42205      0              0              0            
      2500   931.54777     -32332.962      154.00695     -32178.955      2042.5389      23.496         23.496         106.50299      0              0              0            
      2600   917.1608      -32329.141      151.62844     -32177.512      1613.1814      23.496         23.496         106.81285      0              0              0            
      2700   946.31894     -32330.84       156.44897     -32174.391      1217.1395      23.496         23.496         107.23073      0              0              0            
      2800   937.2746      -32325.178      154.95373     -32170.224      1426.9544      23.496         23.496         107.58949      0              0              0            
      2900   964.53941     -32327.448      159.46125     -32167.987      615.99193      23.496         23.496         107.74668      0              0              0            
      3000   979.41951     -32330.886      161.92128     -32168.965      1508.4321      23.496         23.496         107.11036      0              0              0            
      3100   962.31601     -32328.692      159.09367     -32169.598      1332.095       23.496         23.496         106.76511      0              0              0            
      3200   982.36295     -32330.744      162.4079      -32168.336      824.10407      23.496         23.496         106.24349      0              0              0            
      3300   967.58517     -32328.758      159.96479     -32168.793      1696.3079      23.496         23.496         105.84752      0              0              0            
      3400   967.66898     -32331.37       159.97864     -32171.392      1414.405       23.496         23.496         106.58488      0              0              0            
      3500   972.11264     -32331.485      160.71328     -32170.771      719.88322      23.496         23.496         107.3402       0              0              0            
      3600   967.77732     -32327.518      159.99655     -32167.521      2204.0221      23.496         23.496         106.62604      0              0              0            
      3700   989.86167     -32329.621      163.64762     -32165.974      2047.3458      23.496         23.496         106.40742      0              0              0            
      3800   976.68609     -32331.33       161.46938     -32169.861      1346.7306      23.496         23.496         106.45701      0              0              0            
      3900   982.93035     -32335.731      162.50171     -32173.229      1585.711       23.496         23.496         105.95354      0              0              0            
      4000   980.53471     -32335.86       162.10565     -32173.755      1317.1014      23.496         23.496         105.34187      0              0              0            
      4100   981.90147     -32336.884      162.33161     -32174.552      1287.653       23.496         23.496         105.5289       0              0              0            
      4200   971.68451     -32337.375      160.6425      -32176.732      1652.8827      23.496         23.496         105.9827       0              0              0            
      4300   930.87544     -32332.908      153.8958      -32179.012      1386.9178      23.496         23.496         105.98364      0              0              0            
      4400   936.08314     -32336.625      154.75675     -32181.869      2254.96        23.496         23.496         105.43511      0              0              0            
      4500   953.97876     -32341.587      157.71532     -32183.871      2525.4139      23.496         23.496         104.87484      0              0              0            
      4600   918.66522     -32335.448      151.87716     -32183.571      2786.2506      23.496         23.496         104.54091      0              0              0            
      4700   921.31309     -32334.133      152.31491     -32181.818      2342.8148      23.496         23.496         105.20203      0              0              0            
      4800   968.41292     -32339.558      160.10163     -32179.457      1524.7606      23.496         23.496         105.84601      0              0              0            
      4900   950.68837     -32334.079      157.17134     -32176.908      2199.4335      23.496         23.496         105.67956      0              0              0            
      5000   964.85467     -32333.453      159.51337     -32173.939      1338.1524      23.496         23.496         106.02485      0              0              0            
      5100   968.58884     -32333.931      160.13072     -32173.8        297.49443      23.496         23.496         106.50796      0              0              0            
      5200   954.60512     -32333.572      157.81887     -32175.753      2231.0214      23.496         23.496         105.7257       0              0              0            
      5300   965.69515     -32334.615      159.65232     -32174.963      1831.9579      23.496         23.496         106.06692      0              0              0            
      5400   943.04981     -32332.521      155.90851     -32176.612      1446.6787      23.496         23.496         106.27941      0              0              0            
      5500   944.26109     -32334.45       156.10876     -32178.341      1525.068       23.496         23.496         105.89263      0              0              0            
      5600   951.00341     -32334.691      157.22343     -32177.468      1187.0643      23.496         23.496         106.17288      0              0              0            
      5700   942.38195     -32334.553      155.79809     -32178.755      827.80283      23.496         23.496         105.95079      0              0              0            
      5800   947.56649     -32337.621      156.65522     -32180.966      1591.5298      23.496         23.496         105.86292      0              0              0            
      5900   906.59517     -32332.699      149.88169     -32182.817      1281.5999      23.496         23.496         106.67003      0              0              0            
      6000   961.18567     -32343.278      158.9068      -32184.371      1329.6362      23.496         23.496         106.16494      0              0              0            
      6100   938.00622     -32338.177      155.07468     -32183.102      2471.7991      23.496         23.496         105.22663      0              0              0            
      6200   972.8356      -32342.374      160.83281     -32181.541      2064.1562      23.496         23.496         105.34909      0              0              0            
      6300   930.06464     -32334.7        153.76175     -32180.938      2263.7557      23.496         23.496         105.37532      0              0              0            
      6400   974.10615     -32341.656      161.04286     -32180.613      1219.296       23.496         23.496         105.87011      0              0              0            
      6500   939.14914     -32335.427      155.26363     -32180.163      2300.4995      23.496         23.496         105.67224      0              0              0            
      6600   971.06692     -32339.072      160.5404      -32178.531      1917.9536      23.496         23.496         105.06201      0              0              0            
      6700   981.16776     -32342.919      162.21031     -32180.708      1289.022       23.496         23.496         104.83776      0              0              0            
      6800   966.81947     -32342.385      159.8382      -32182.547      1009.3327      23.496         23.496         105.03617      0              0              0            
      6900   980.98768     -32346.625      162.18054     -32184.445      1820.6593      23.496         23.496         104.62876      0              0              0            
      7000   952.0896      -32340.999      157.403       -32183.596      2235.4735      23.496         23.496         104.97609      0              0              0            
      7100   946.18032     -32339.818      156.42606     -32183.392      811.83031      23.496         23.496         105.37173      0              0              0            
      7200   972.30816     -32339.137      160.74561     -32178.391      1361.445       23.496         23.496         104.71786      0              0              0            
      7300   956.14883     -32338.288      158.07409     -32180.214      1059.5276      23.496         23.496         104.6348       0              0              0            
      7400   940.16564     -32335.387      155.43169     -32179.955      2764.1149      23.496         23.496         104.62375      0              0              0            
      7500   935.19847     -32333.672      154.61049     -32179.062      1947.9525      23.496         23.496         105.18271      0              0              0            
      7600   949.95647     -32339.846      157.05034     -32182.796      1859.9821      23.496         23.496         104.41661      0              0              0            
      7700   972.47829     -32343.727      160.77373     -32182.953      2353.7113      23.496         23.496         103.86033      0              0              0            
      7800   928.27267     -32341.878      153.4655      -32188.412      1769.4075      23.496         23.496         104.36447      0              0              0            
      7900   918.39358     -32339.677      151.83225     -32187.845      2458.875       23.496         23.496         104.48356      0              0              0            
      8000   929.47367     -32344.161      153.66405     -32190.497      1899.1595      23.496         23.496         104.30386      0              0              0            
      8100   959.06451     -32343.899      158.55612     -32185.343      1600.572       23.496         23.496         104.61162      0              0              0            
      8200   946.55346     -32342.146      156.48774     -32185.658      1208.8607      23.496         23.496         105.20254      0              0              0            
      8300   927.85373     -32340.368      153.39624     -32186.972      1336.3563      23.496         23.496         105.39023      0              0              0            
      8400   935.70596     -32338.336      154.69439     -32183.641      2178.4474      23.496         23.496         105.17283      0              0              0            
      8500   954.29339     -32340.151      157.76734     -32182.383      1927.2119      23.496         23.496         104.58389      0              0              0            
      8600   936.37952     -32336.578      154.80575     -32181.773      2804.9798      23.496         23.496         104.67295      0              0              0            
      8700   944.44498     -32339.033      156.13916     -32182.894      916.26916      23.496         23.496         106.00308      0              0              0            
      8800   937.94041     -32337.343      155.0638      -32182.28       1859.6592      23.496         23.496         105.76915      0              0              0            
      8900   977.45481     -32347.07       161.59647     -32185.474      1727.2112      23.496         23.496         105.23854      0              0              0            
      9000   965.57329     -32347.047      159.63217     -32187.415      1584.4444      23.496         23.496         105.12341      0              0              0            
      9100   945.17341     -32343.075      156.25959     -32186.815      1593.5483      23.496         23.496         104.50557      0              0              0            
      9200   908.16187     -32339.726      150.1407      -32189.585      1440.544       23.496         23.496         104.76781      0              0              0            
      9300   908.93137     -32339.028      150.26792     -32188.76       1658.9391      23.496         23.496         104.98067      0              0              0            
      9400   928.52636     -32341.281      153.50744     -32187.773      1419.1143      23.496         23.496         105.09989      0              0              0            
      9500   931.80984     -32340.901      154.05027     -32186.851      1789.7376      23.496         23.496         105.28835      0              0              0            
      9600   927.27238     -32337.13       153.30012     -32183.83       1135.7838      23.496         23.496         105.85074      0              0              0            
      9700   946.48623     -32341.383      156.47663     -32184.907      3245.8445      23.496         23.496         105.09761      0              0              0            
      9800   961.71495     -32343.51       158.9943      -32184.516      2451.7036      23.496         23.496         104.58746      0              0              0            
      9900   960.62641     -32344.337      158.81434     -32185.523      1457.2559      23.496         23.496         104.85372      0              0              0            
     10000   917.84716     -32336.555      151.74191     -32184.813      929.90903      23.496         23.496         105.20607      0              0              0            
     10100   947.37486     -32345.063      156.62354     -32188.439      1002.508       23.496         23.496         105.0531       0              0              0            
     10200   963.28628     -32344.248      159.25408     -32184.994      1558.8425      23.496         23.496         104.83134      0              0              0            
     10300   929.19091     -32340.709      153.6173      -32187.092      2110.2085      23.496         23.496         104.56104      0              0              0            
     10400   954.79684     -32343.472      157.85057     -32185.621      1416.5258      23.496         23.496         104.64108      0              0              0            
     10500   934.40086     -32340.801      154.47863     -32186.323      1967.8262      23.496         23.496         104.69999      0              0              0            
     10600   940.95582     -32340.948      155.56232     -32185.386      1326.1695      23.496         23.496         104.77131      0              0              0            
     10700   943.77708     -32340.315      156.02874     -32184.286      1296.3826      23.496         23.496         105.15817      0              0              0            
     10800   937.79159     -32339.921      155.0392      -32184.881      1922.3817      23.496         23.496         105.32065      0              0              0            
     10900   940.13833     -32339.724      155.42717     -32184.297      937.02198      23.496         23.496         105.05402      0              0              0            
     11000   952.38632     -32343.37       157.45205     -32185.918      2206.5932      23.496         23.496         103.9453       0              0              0            
     11100   955.66014     -32345.475      157.99329     -32187.481      1062.0182      23.496         23.496         104.4308       0              0              0            
     11200   920.0148      -32339.532      152.10027     -32187.432      595.84196      23.496         23.496         105.28466      0              0              0            
     11300   927.23824     -32341.898      153.29448     -32188.604      1639.7447      23.496         23.496         104.66074      0              0              0            
     11400   940.33861     -32344.983      155.46028     -32189.523      2586.7969      23.496         23.496         104.22353      0              0              0            
     11500   975.46024     -32349.437      161.26672     -32188.17       2244.8647      23.496         23.496         104.3933       0              0              0            
     11600   920.64363     -32338.945      152.20424     -32186.741      1709.4937      23.496         23.496         104.75437      0              0              0            
     11700   924.75833     -32339.197      152.88449     -32186.313      1168.9107      23.496         23.496         104.9521       0              0              0            
     11800   951.88349     -32345.774      157.36893     -32188.405      1300.446       23.496         23.496         105.13518      0              0              0            
     11900   937.81585     -32346.272      155.04321     -32191.229      1350.2618      23.496         23.496         105.41328      0              0              0            
     12000   926.20667     -32344.182      153.12394     -32191.058      695.8233       23.496         23.496         105.50444      0              0              0            
     12100   925.36957     -32340.973      152.98554     -32187.987      2455.9805      23.496         23.496         104.82202      0              0              0            
     12200   928.32811     -32339.062      153.47466     -32185.588      851.56344      23.496         23.496         105.7909       0              0              0            
     12300   931.65451     -32340.239      154.02459     -32186.215      438.11831      23.496         23.496         105.9322       0              0              0            
     12400   945.52682     -32341.554      156.31802     -32185.236      1554.7042      23.496         23.496         104.82231      0              0              0            
     12500   970.70731     -32345.252      160.48095     -32184.771      1901.0992      23.496         23.496         104.61177      0              0              0            
     12600   942.48975     -32337.459      155.81592     -32181.643      1337.6967      23.496         23.496         105.32512      0              0              0            
     12700   935.04452     -32339.411      154.58504     -32184.826      1518.2127      23.496         23.496         105.41618      0              0              0            
     12800   953.80055     -32339.768      157.68586     -32182.082      2231.3276      23.496         23.496         105.33258      0              0              0            
     12900   924.75826     -32335.743      152.88448     -32182.859      1254.1614      23.496         23.496         106.09072      0              0              0            
     13000   942.98323     -32337.676      155.8975      -32181.779      726.89345      23.496         23.496         106.68638      0              0              0            
     13100   948.75863     -32342.081      156.85231     -32185.229      2314.7515      23.496         23.496         105.26183      0              0              0            
     13200   935.0338      -32339.539      154.58327     -32184.955      1641.6594      23.496         23.496         105.36655      0              0              0            
     13300   929.55757     -32341.384      153.67792     -32187.706      732.2457       23.496         23.496         106.15447      0              0              0            
     13400   957.60648     -32345.698      158.31507     -32187.383      1655.8362      23.496         23.496         105.49589      0              0              0            
     13500   937.72704     -32341.647      155.02853     -32186.619      903.96502      23.496         23.496         105.37437      0              0              0            
     13600   965.02269     -32344.777      159.54115     -32185.236      1944.6599      23.496         23.496         104.77928      0              0              0            
     13700   912.66756     -32340.396      150.8856      -32189.51       1331.7006      23.496         23.496         105.43551      0              0              0            
     13800   925.97574     -32342.785      153.08576     -32189.699      1800.8611      23.496         23.496         105.86613      0              0              0            
     13900   950.75503     -32345.535      157.18236     -32188.353      1236.9905      23.496         23.496         105.50539      0              0              0            
     14000   929.89753     -32341.461      153.73412     -32187.726      1643.3857      23.496         23.496         105.00939      0              0              0            
     14100   941.95875     -32342.266      155.72813     -32186.538      1920.2835      23.496         23.496         105.33164      0              0              0            
     14200   904.50979     -32337.032      149.53693     -32187.495      1948.4342      23.496         23.496         105.69912      0              0              0            
     14300   936.50527     -32341.544      154.82654     -32186.718      1258.0336      23.496         23.496         105.77874      0              0              0            
     14400   936.11543     -32336.735      154.76209     -32181.972      2059.9152      23.496         23.496         105.37362      0              0              0            
     14500   957.91828     -32342.474      158.36662     -32184.107      1072.3607      23.496         23.496         105.21377      0              0              0            
     14600   937.99831     -32341.251      155.07338     -32186.178      1382.1155      23.496         23.496         104.88379      0              0              0            
     14700   993.90918     -32348.781      164.31677     -32184.464      1322.6939      23.496         23.496         104.67273      0              0              0            
     14800   918.61207     -32336.081      151.86837     -32184.213      1122.8755      23.496         23.496         104.85016      0              0              0            
     14900   953.34257     -32343.562      157.61015     -32185.951      1852.1556      23.496         23.496         104.79797      0              0              0            
     15000   927.12478     -32340.389      153.27572     -32187.114      1134.7953      23.496         23.496         105.53402      0              0              0            
     15100   915.75751     -32339.104      151.39644     -32187.707      2214.522       23.496         23.496         105.31314      0              0              0            
     15200   977.31151     -32347.951      161.57278     -32186.379      1958.8449      23.496         23.496         105.2856       0              0              0            
     15300   931.82351     -32343.016      154.05253     -32188.963      2033.9708      23.496         23.496         104.83266      0              0              0            
     15400   912.62121     -32338.02       150.87794     -32187.142      2201.1224      23.496         23.496         105.25453      0              0              0            
     15500   929.13686     -32342.194      153.60837     -32188.585      1872.8484      23.496         23.496         105.43629      0              0              0            
     15600   965.5055      -32348.107      159.62097     -32188.486      767.94816      23.496         23.496         105.38939      0              0              0            
     15700   953.94176     -32349.312      157.70921     -32191.603      2302.0155      23.496         23.496         104.17096      0              0              0            
     15800   909.30379     -32340.721      150.32949     -32190.391      2027.5011      23.496         23.496         104.93347      0              0              0            
     15900   942.94757     -32344.091      155.89161     -32188.199      939.45577      23.496         23.496         105.6487       0              0              0            
     16000   965.52204     -32349.648      159.6237      -32190.024      2129.258       23.496         23.496         105.10548      0              0              0            
     16100   939.48139     -32346.62       155.31856     -32191.302      1602.1778      23.496         23.496         105.31153      0              0              0            
     16200   926.7074      -32345.023      153.20672     -32191.816      1755.787       23.496         23.496         105.537        0              0              0            
     16300   936.27367     -32345.441      154.78825     -32190.653      1672.1967      23.496         23.496         105.51487      0              0              0            
     16400   941.38902     -32342.941      155.63394     -32187.307      1703.4356      23.496         23.496         105.21059      0              0              0            
     16500   965.28825     -32343.805      159.58505     -32184.22       1272.8565      23.496         23.496         105.5142       0              0              0            
     16600   968.48985     -32343.219      160.11435     -32183.105      2719.1281      23.496         23.496         105.694        0              0              0            
     16700   948.06738     -32339.651      156.73803     -32182.912      2139.9454      23.496         23.496         105.72812      0              0              0            
     16800   947.35807     -32339.325      156.62077     -32182.704      2430.3272      23.496         23.496         105.65518      0              0              0            
     16900   933.34347     -32339.328      154.30382     -32185.024      1527.4633      23.496         23.496         105.53774      0              0              0            
     17000   955.22651     -32343.944      157.92161     -32186.023      851.84592      23.496         23.496         106.1503       0              0              0            
     17100   945.61781     -32336.74       156.33306     -32180.407      1179.2321      23.496         23.496         106.56831      0              0              0            
     17200   964.67966     -32339.269      159.48444     -32179.785      1777.6599      23.496         23.496         105.68711      0              0              0            
     17300   957.14593     -32337.63       158.23893     -32179.391      1826.6424      23.496         23.496         105.84922      0              0              0            
     17400   939.78917     -32336.116      155.36945     -32180.747      1091.8475      23.496         23.496         106.10711      0              0              0            
     17500   929.73853     -32333.832      153.70784     -32180.124      1458.7555      23.496         23.496         105.90796      0              0              0            
     17600   962.60423     -32341.891      159.14132     -32182.75       892.59936      23.496         23.496         106.11435      0              0              0            
     17700   959.12397     -32337.807      158.56595     -32179.241      2461.349       23.496         23.496         105.30202      0              0              0            
     17800   927.97845     -32335.487      153.41685     -32182.07       2178.622       23.496         23.496         105.5654       0              0              0            
     17900   962.15777     -32341.091      159.06751     -32182.023      712.55132      23.496         23.496         106.42957      0              0              0            
     18000   917.94578     -32334.439      151.75822     -32182.681      1394.6283      23.496         23.496         106.37255      0              0              0            
     18100   943.31816     -32337.201      155.95287     -32181.248      1997.2899      23.496         23.496         106.32212      0              0              0            
     18200   940.47314     -32339.444      155.48252     -32183.962      1014.6799      23.496         23.496         106.29681      0              0              0            
     18300   959.57227     -32345.893      158.64006     -32187.253      1183.903       23.496         23.496         105.97126      0              0              0            
     18400   935.78265     -32341.582      154.70707     -32186.875      703.29989      23.496         23.496         105.90584      0              0              0            
     18500   926.31457     -32339.025      153.14178     -32185.884      1472.5379      23.496         23.496         105.86481      0              0              0            
     18600   959.89933     -32344.36       158.69413     -32185.665      1353.4253      23.496         23.496         105.82038      0              0              0            
     18700   944.86875     -32340.51       156.20922     -32184.301      468.41982      23.496         23.496         106.58823      0              0              0            
     18800   912.4186      -32332.454      150.84444     -32181.609      788.0338       23.496         23.496         106.47309      0              0              0            
     18900   953.92067     -32340.242      157.70572     -32182.536      1645.0613      23.496         23.496         105.19664      0              0              0            
     19000   979.95602     -32343.581      162.00998     -32181.571      1586.204       23.496         23.496         105.0275       0              0              0            
     19100   937.04463     -32338.474      154.91571     -32183.558      935.67827      23.496         23.496         105.74033      0              0              0            
     19200   924.99754     -32335.126      152.92404     -32182.202      838.53544      23.496         23.496         106.27423      0              0              0            
     19300   932.99869     -32335.852      154.24682     -32181.606      1734.4237      23.496         23.496         106.18126      0              0              0            
     19400   930.29623     -32336.371      153.80004     -32182.571      1198.2775      23.496         23.496         105.57024      0              0              0            
     19500   916.86578     -32335.344      151.57967     -32183.764      1761.8599      23.496         23.496         105.29847      0              0              0            
     19600   974.7755      -32344.719      161.15352     -32183.566      1762.3652      23.496         23.496         105.39347      0              0              0            
     19700   916.93055     -32335.564      151.59038     -32183.974      2258.4898      23.496         23.496         105.44602      0              0              0            
     19800   918.71699     -32335.242      151.88572     -32183.356      1938.2576      23.496         23.496         105.40976      0              0              0            
     19900   946.8492      -32340.235      156.53664     -32183.698      1826.7871      23.496         23.496         105.03207      0              0              0            
     20000   925.51933     -32335.18       153.0103      -32182.17       753.24825      23.496         23.496         105.59755      0              0              0            
     20100   943.87298     -32337.802      156.0446      -32181.758      772.90377      23.496         23.496         105.80529      0              0              0            
     20200   964.42357     -32340.838      159.4421      -32181.396      1675.6679      23.496         23.496         104.53286      0              0              0            
     20300   959.55508     -32340.615      158.63722     -32181.978      1719.8365      23.496         23.496         104.48779      0              0              0            
     20400   923.63545     -32337.176      152.69885     -32184.477      1157.6879      23.496         23.496         105.41586      0              0              0            
     20500   927.09173     -32337.155      153.27026     -32183.885      1651.3668      23.496         23.496         104.97484      0              0              0            
     20600   964.4462      -32342.496      159.44584     -32183.05       2251.5359      23.496         23.496         104.20723      0              0              0            
     20700   911.25995     -32334.507      150.65289     -32183.854      1804.5686      23.496         23.496         104.43319      0              0              0            
     20800   942.90474     -32341.869      155.88453     -32185.984      1392.4629      23.496         23.496         104.45043      0              0              0            
     20900   974.71681     -32343.362      161.14381     -32182.218      2298.6674      23.496         23.496         104.00017      0              0              0            
     21000   940.06168     -32334.458      155.4145      -32179.043      2555.6715      23.496         23.496         104.42742      0              0              0            
     21100   940.13128     -32335.282      155.42601     -32179.856      942.30771      23.496         23.496         105.66494      0              0              0            
     21200   945.35898     -32338.827      156.29027     -32182.537      1418.4439      23.496         23.496         105.3237       0              0              0            
     21300   954.79537     -32341.665      157.85033     -32183.814      1987.5097      23.496         23.496         104.36215      0              0              0            
     21400   978.95327     -32342.857      161.8442      -32181.013      1926.4442      23.496         23.496         104.35499      0              0              0            
     21500   938.88561     -32337.308      155.22007     -32182.088      1401.175       23.496         23.496         104.93318      0              0              0            
     21600   935.15281     -32335.329      154.60295     -32180.726      840.42157      23.496         23.496         105.68543      0              0              0            
     21700   949.56801     -32336.33       156.98612     -32179.344      643.06347      23.496         23.496         105.59932      0              0              0            
     21800   920.87625     -32332.906      152.24269     -32180.663      1962.654       23.496         23.496         105.40374      0              0              0            
     21900   942.27551     -32338.914      155.7805      -32183.133      1186.1445      23.496         23.496         105.70697      0              0              0            
     22000   965.17865     -32344.942      159.56693     -32185.375      1887.7208      23.496         23.496         105.42067      0              0              0            
     22100   973.99253     -32347.204      161.02407     -32186.18       1192.0551      23.496         23.496         105.34167      0              0              0            
     22200   940.60736     -32338.961      155.50471     -32183.456      1605.1604      23.496         23.496         105.10545      0              0              0            
     22300   963.61314     -32340.596      159.30811     -32181.288      1905.7112      23.496         23.496         105.2404       0              0              0            
     22400   937.86044     -32336.163      155.05058     -32181.112      1895.2223      23.496         23.496         105.51747      0              0              0            
     22500   937.23057     -32338.832      154.94645     -32183.886      822.24746      23.496         23.496         105.98872      0              0              0            
     22600   932.69046     -32342.594      154.19586     -32188.398      2006.4671      23.496         23.496         105.43753      0              0              0            
     22700   946.84302     -32343.675      156.53562     -32187.139      1942.9972      23.496         23.496         105.64769      0              0              0            
     22800   940.46935     -32339.515      155.4819      -32184.033      338.97708      23.496         23.496         106.48189      0              0              0            
     22900   946.32768     -32340.273      156.45042     -32183.823      2233.1142      23.496         23.496         105.96653      0              0              0            
     23000   933.20329     -32338.475      154.28065     -32184.194      2020.2194      23.496         23.496         105.74936      0              0              0            
     23100   922.95179     -32334.701      152.58583     -32182.115      1345.766       23.496         23.496         106.58689      0              0              0            
     23200   924.78467     -32333.042      152.88885     -32180.153      788.64222      23.496         23.496         107.55444      0              0              0            
     23300   935.06388     -32332.43       154.58824     -32177.841      2265.55        23.496         23.496         106.53825      0              0              0            
     23400   967.46724     -32336.27       159.94529     -32176.325      2147.5133      23.496         23.496         106.4656       0              0              0            
     23500   953.87977     -32334.259      157.69896     -32176.56       870.69773      23.496         23.496         106.79196      0              0              0            
     23600   975.6932      -32334.008      161.30523     -32172.702      1360.7113      23.496         23.496         106.62426      0              0              0            
     23700   993.98937     -32335.99       164.33003     -32171.66       1428.2389      23.496         23.496         106.29244      0              0              0            
     23800   977.93078     -32332.454      161.67516     -32170.779      1100.5516      23.496         23.496         106.29033      0              0              0            
     23900   966.83957     -32330.496      159.84152     -32170.654      1536.3642      23.496         23.496         106.51141      0              0              0            
     24000   943.63333     -32329.161      156.00498     -32173.156      1156.9721      23.496         23.496         106.63362      0              0              0            
     24100   976.83654     -32331.146      161.49426     -32169.652      1062.8411      23.496         23.496         107.09045      0              0              0            
     24200   929.44116     -32326.233      153.65867     -32172.575      1385.6632      23.496         23.496         106.86196      0              0              0            
     24300   965.38498     -32331.046      159.60104     -32171.445      2086.8011      23.496         23.496         106.34123      0              0              0            
     24400   938.37476     -32329.716      155.13561     -32174.58       1060.4125      23.496         23.496         106.937        0              0              0            
     24500   953.52499     -32332.926      157.6403      -32175.285      1468.597       23.496         23.496         107.42099      0              0              0            
     24600   921.80819     -32330.068      152.39676     -32177.671      1370.1934      23.496         23.496         106.41559      0              0              0            
     24700   961.13275     -32336.325      158.89805     -32177.427      1345.3019      23.496         23.496         105.73473      0              0              0            
     24800   936.96846     -32332.698      154.90312     -32177.795      1968.8081      23.496         23.496         105.66308      0              0              0            
     24900   957.18198     -32336.808      158.24489     -32178.563      955.30018      23.496         23.496         106.14055      0              0              0            
     25000   941.67337     -32334.719      155.68095     -32179.038      1074.9079      23.496         23.496         106.58354      0              0              0            
     25100   926.95082     -32334.749      153.24696     -32181.502      168.25825      23.496         23.496         106.40257      0              0              0            
     25200   942.80054     -32336.725      155.8673      -32180.858      1908.9635      23.496         23.496         105.43648      0              0              0            
     25300   944.97125     -32335.792      156.22617     -32179.566      1772.2168      23.496         23.496         104.93921      0              0              0            
     25400   988.3405      -32341.753      163.39613     -32178.357      1619.4784      23.496         23.496         105.24896      0              0              0            
     25500   968.7517      -32337.228      160.15764     -32177.07       1679.3065      23.496         23.496         105.35604      0              0              0            
     25600   971.6072      -32335.295      160.62972     -32174.665      2056.6125      23.496         23.496         105.29221      0              0              0            
     25700   953.59805     -32334.234      157.65238     -32176.582      1712.582       23.496         23.496         105.03268      0              0              0            
     25800   961.27688     -32336.491      158.92188     -32177.569      1549.3534      23.496         23.496         104.83376      0              0              0            
     25900   960.09505     -32335.538      158.72649     -32176.811      1211.9073      23.496         23.496         105.02899      0              0              0            
     26000   971.66995     -32338.545      160.6401      -32177.905      1522.5653      23.496         23.496         105.05605      0              0              0            
     26100   946.62426     -32335.963      156.49945     -32179.464      1318.5188      23.496         23.496         105.52992      0              0              0            
     26200   945.95853     -32335.687      156.38939     -32179.298      1192.7791      23.496         23.496         105.41709      0              0              0            
     26300   978.26689     -32340.425      161.73073     -32178.694      2022.4778      23.496         23.496         104.9526       0              0              0            
     26400   923.69279     -32332.475      152.70833     -32179.766      1616.8324      23.496         23.496         104.89697      0              0              0            
     26500   947.54055     -32337.17       156.65093     -32180.519      1284.8555      23.496         23.496         105.48646      0              0              0            
     26600   970.87648     -32338.859      160.50892     -32178.35       1677.3842      23.496         23.496         105.45831      0              0              0            
     26700   919.59332     -32332.567      152.03059     -32180.537      2444.3883      23.496         23.496         105.01878      0              0              0            
     26800   961.64843     -32337.318      158.9833      -32178.335      1749.9782      23.496         23.496         105.03317      0              0              0            
     26900   960.29074     -32334.78       158.75884     -32176.022      1853.0735      23.496         23.496         105.367        0              0              0            
     27000   938.69888     -32331.75       155.1892      -32176.56       988.60308      23.496         23.496         105.7098       0              0              0            
     27100   943.96912     -32335.002      156.06049     -32178.941      1129.2317      23.496         23.496         105.47031      0              0              0            
     27200   941.89481     -32333.538      155.71756     -32177.821      1263.7915      23.496         23.496         105.56936      0              0              0            
     27300   983.84073     -32341.425      162.65221     -32178.773      1551.8388      23.496         23.496         105.44439      0              0              0            
     27400   950.67846     -32338.722      157.16971     -32181.552      2292.4522      23.496         23.496         104.82348      0              0              0            
     27500   930.25537     -32335.208      153.79328     -32181.415      2657.7132      23.496         23.496         104.62055      0              0              0            
     27600   951.93269     -32338.406      157.37706     -32181.029      2418.5802      23.496         23.496         104.79873      0              0              0            
     27700   920.99439     -32333.243      152.26222     -32180.981      659.21894      23.496         23.496         106.0428       0              0              0            
     27800   950.52149     -32337.035      157.14375     -32179.891      1330.8125      23.496         23.496         106.29511      0              0              0            
     27900   965.21991     -32337.174      159.57375     -32177.6        1641.2767      23.496         23.496         105.35969      0              0              0            
     28000   956.3         -32335.136      158.09908     -32177.037      2084.0349      23.496         23.496         105.07384      0              0              0            
     28100   959.51366     -32334.771      158.63037     -32176.14       1001.1887      23.496         23.496         105.87358      0              0              0            
     28200   982.09159     -32335.801      162.36304     -32173.438      1498.5224      23.496         23.496         105.88199      0              0              0            
     28300   970.145       -32331.506      160.38799     -32171.118      781.59965      23.496         23.496         106.08515      0              0              0            
     28400   965.40672     -32333.52       159.60464     -32173.916      1246.5236      23.496         23.496         105.83891      0              0              0            
     28500   969.87333     -32335.961      160.34307     -32175.618      1106.7089      23.496         23.496         105.95973      0              0              0            
     28600   965.3891      -32336.927      159.60172     -32177.325      422.10874      23.496         23.496         106.32027      0              0              0            
     28700   924.15917     -32329.513      152.78544     -32176.727     -61.281532      23.496         23.496         106.88283      0              0              0            
     28800   929.45589     -32329.117      153.66111     -32175.455      560.04191      23.496         23.496         107.09804      0              0              0            
     28900   950.11582     -32333.477      157.07669     -32176.4        1126.5482      23.496         23.496         106.70143      0              0              0            
     29000   963.94429     -32336.336      159.36286     -32176.973      233.84576      23.496         23.496         106.70049      0              0              0            
     29100   989.63721     -32334.849      163.61051     -32171.238      1025.3476      23.496         23.496         106.33783      0              0              0            
     29200   984.82467     -32335.08       162.81488     -32172.265      794.18534      23.496         23.496         106.35701      0              0              0            
     29300   971.13302     -32334.132      160.55133     -32173.581      2048.6554      23.496         23.496         105.92569      0              0              0            
     29400   923.75184     -32328.732      152.71809     -32176.014      919.28209      23.496         23.496         106.31999      0              0              0            
     29500   957.20648     -32333.387      158.24894     -32175.138      1544.5574      23.496         23.496         106.44357      0              0              0            
     29600   951.49577     -32332.59       157.30482     -32175.285      1574.6894      23.496         23.496         106.34299      0              0              0            
     29700   957.08515     -32332.131      158.22888     -32173.903      478.02266      23.496         23.496         106.1383       0              0              0            
     29800   967.85499     -32331.895      160.00939     -32171.885      2261.4664      23.496         23.496         104.97779      0              0              0            
     29900   951.24716     -32333.894      157.26372     -32176.63       1156.4743      23.496         23.496         105.39937      0              0              0            
     30000   928.28859     -32330.31       153.46813     -32176.842      423.92748      23.496         23.496         106.25159      0              0              0            
     30100   940.67571     -32331.292      155.51601     -32175.776      133.87968      23.496         23.496         106.16943      0              0              0            
     30200   943.795       -32333.08       156.0317      -32177.048      1570.301       23.496         23.496         105.32763      0              0              0            
     30300   995.42004     -32343.053      164.56655     -32178.487      1619.0698      23.496         23.496         105.40055      0              0              0            
     30400   954.96158     -32338.214      157.87781     -32180.336      1365.2278      23.496         23.496         105.49399      0              0              0            
     30500   953.48511     -32340.061      157.63371     -32182.427      1108.8064      23.496         23.496         105.6483       0              0              0            
     30600   939.23137     -32338.371      155.27723     -32183.094      571.07874      23.496         23.496         105.70145      0              0              0            
     30700   929.85077     -32335.823      153.72639     -32182.096      1148.3659      23.496         23.496         105.88196      0              0              0            
     30800   928.8522      -32334.945      153.56131     -32181.384      675.29179      23.496         23.496         105.81771      0              0              0            
     30900   962.66916     -32338.166      159.15205     -32179.014      1714.9397      23.496         23.496         105.10633      0              0              0            
     31000   979.93798     -32338.504      162.007       -32176.497      2643.4126      23.496         23.496         104.63861      0              0              0            
     31100   992.3367      -32343.288      164.0568      -32179.231      766.39922      23.496         23.496         105.94265      0              0              0            
     31200   931.71295     -32330.555      154.03426     -32176.521     -263.81132      23.496         23.496         106.26686      0              0              0            
     31300   994.07017     -32341.054      164.34338     -32176.711      2230.7522      23.496         23.496         104.96896      0              0              0            
     31400   971.1359      -32337.603      160.5518      -32177.051      1316.5862      23.496         23.496         104.98863      0              0              0            
     31500   985.69226     -32339.194      162.95832     -32176.236      1379.6348      23.496         23.496         105.50109      0              0              0            
     31600   979.83697     -32339.511      161.9903      -32177.521      1292.1938      23.496         23.496         105.595        0              0              0            
     31700   954.95118     -32336.868      157.87609     -32178.992      1306.1926      23.496         23.496         105.16931      0              0              0            
     31800   942.52018     -32334.872      155.82095     -32179.052      1833.7289      23.496         23.496         104.63907      0              0              0            
[...]
   1575700   967.37082     -32279.507      159.92935     -32119.578      226.18873      23.496         23.496         110.18045      0              0              0            
   1575800   982.07956     -32283.486      162.36105     -32121.124      469.94036      23.496         23.496         110.424        0              0              0            
   1575900   950.92016     -32278.597      157.20966     -32121.387     -120.12573      23.496         23.496         111.47924      0              0              0            
   1576000   987.34916     -32281.446      163.23224     -32118.213      150.24894      23.496         23.496         111.51394      0              0              0            
   1576100   963.37243     -32279.615      159.26832     -32120.347      557.52406      23.496         23.496         111.41199      0              0              0            
   1576200   939.31139     -32272.408      155.29046     -32117.118     -318.44881      23.496         23.496         112.06416      0              0              0            
   1576300   989.0199      -32280.033      163.50845     -32116.524     -236.76479      23.496         23.496         111.87791      0              0              0            
   1576400   983.86165     -32276.696      162.65567     -32114.04      -0.18731994     23.496         23.496         111.23312      0              0              0            
   1576500   950.26535     -32277.169      157.10141     -32120.068     -139.0761       23.496         23.496         110.19118      0              0              0            
   1576600   972.51699     -32280.197      160.78013     -32119.417      400.63297      23.496         23.496         109.74213      0              0              0            
   1576700   958.74377     -32280.701      158.50309     -32122.198      296.80794      23.496         23.496         109.99773      0              0              0            
   1576800   955.49009     -32284.169      157.96518     -32126.204      1053.8195      23.496         23.496         109.46637      0              0              0            
   1576900   960.23939     -32288.399      158.75035     -32129.649      1494.2645      23.496         23.496         109.44387      0              0              0            
   1577000   934.79667     -32283.546      154.54407     -32129.002     -602.3278       23.496         23.496         110.01525      0              0              0            
   1577100   939.9687      -32286.099      155.39913     -32130.7        187.73259      23.496         23.496         109.55305      0              0              0            
   1577200   987.83043     -32290.753      163.31181     -32127.441      1345.0492      23.496         23.496         109.21896      0              0              0            
   1577300   978.03177     -32289.304      161.69186     -32127.612      773.47356      23.496         23.496         109.06329      0              0              0            
   1577400   951.36917     -32285.162      157.28389     -32127.878      641.90218      23.496         23.496         108.61289      0              0              0            
   1577500   956.11651     -32287.622      158.06874     -32129.554      806.09023      23.496         23.496         108.46672      0              0              0            
   1577600   952.55359     -32287.801      157.47971     -32130.322      398.43182      23.496         23.496         109.35565      0              0              0            
   1577700   948.71212     -32289.239      156.84462     -32132.394     -231.49441      23.496         23.496         109.48194      0              0              0            
   1577800   940.91799     -32289.435      155.55607     -32133.879      217.29073      23.496         23.496         109.23792      0              0              0            
   1577900   973.42636     -32293.966      160.93047     -32133.035      306.99496      23.496         23.496         109.03764      0              0              0            
   1578000   905.03456     -32283.666      149.62369     -32134.042      293.738        23.496         23.496         108.62482      0              0              0            
   1578100   914.52324     -32286.139      151.19239     -32134.947      707.82718      23.496         23.496         108.31666      0              0              0            
   1578200   938.2212      -32291.075      155.11022     -32135.965      935.62513      23.496         23.496         108.14966      0              0              0            
   1578300   904.44793     -32288.951      149.5267      -32139.424     -371.93956      23.496         23.496         109.03929      0              0              0            
   1578400   908.38316     -32290.585      150.17729     -32140.408     -549.98251      23.496         23.496         109.5807       0              0              0            
   1578500   930.53909     -32291.853      153.84019     -32138.013     -631.06131      23.496         23.496         109.39612      0              0              0            
   1578600   935.17451     -32293.027      154.60653     -32138.42       1184.771       23.496         23.496         107.83502      0              0              0            
   1578700   947.75057     -32295.971      156.68565     -32139.286      1424.5111      23.496         23.496         107.60073      0              0              0            
   1578800   938.48119     -32292.009      155.15321     -32136.856      1014.1442      23.496         23.496         108.02841      0              0              0            
   1578900   895.46667     -32289.044      148.04189     -32141.002     -22.671729      23.496         23.496         108.64962      0              0              0            
   1579000   911.3026      -32290.941      150.65994     -32140.281     -480.24887      23.496         23.496         108.74873      0              0              0            
   1579100   920.30303     -32292.3        152.14793     -32140.152     -152.47393      23.496         23.496         108.91367      0              0              0            
   1579200   920.84372     -32288.984      152.23731     -32136.747      315.35052      23.496         23.496         108.4939       0              0              0            
   1579300   968.39617     -32296.186      160.09886     -32136.087      387.26708      23.496         23.496         107.96741      0              0              0            
   1579400   908.59697     -32290.555      150.21264     -32140.342      1054.1393      23.496         23.496         108.11203      0              0              0            
   1579500   929.5913      -32291.841      153.6835      -32138.158     -323.8426       23.496         23.496         109.05464      0              0              0            
   1579600   947.45832     -32294.127      156.63734     -32137.49       500.57154      23.496         23.496         108.5382       0              0              0            
   1579700   939.57993     -32291.936      155.33485     -32136.601     -131.33925      23.496         23.496         108.26857      0              0              0            
   1579800   914.48393     -32289.856      151.18589     -32138.67       708.34427      23.496         23.496         108.15707      0              0              0            
   1579900   926.50275     -32288.22       153.17289     -32135.047      119.95107      23.496         23.496         108.26118      0              0              0            
   1580000   942.72276     -32286.431      155.85444     -32130.576      301.07894      23.496         23.496         108.52406      0              0              0            
   1580100   953.1009      -32284.735      157.57019     -32127.165      589.82317      23.496         23.496         108.59646      0              0              0            
   1580200   951.60933     -32281.9        157.3236      -32124.576      148.43743      23.496         23.496         108.98082      0              0              0            
   1580300   939.66488     -32278.696      155.3489      -32123.347     -261.61779      23.496         23.496         109.96226      0              0              0            
   1580400   940.23745     -32281.294      155.44356     -32125.85       505.85377      23.496         23.496         110.38531      0              0              0            
   1580500   970.66117     -32285.128      160.47332     -32124.655      717.47796      23.496         23.496         109.7492       0              0              0            
   1580600   940.49958     -32282.609      155.48689     -32127.122      1227.9001      23.496         23.496         108.44573      0              0              0            
   1580700   956.57337     -32284.237      158.14427     -32126.093      1702.5336      23.496         23.496         108.27065      0              0              0            
   1580800   978.85364     -32287.11       161.82773     -32125.282      741.88866      23.496         23.496         108.61468      0              0              0            
   1580900   983.11922     -32293.44       162.53293     -32130.907      659.70545      23.496         23.496         108.93409      0              0              0            
   1581000   972.23405     -32289.466      160.73335     -32128.733      191.05104      23.496         23.496         108.86234      0              0              0            
   1581100   957.10312     -32287.691      158.23185     -32129.46       1283.6194      23.496         23.496         108.39173      0              0              0            
   1581200   975.25048     -32292.674      161.23204     -32131.442      1260.7491      23.496         23.496         108.06883      0              0              0            
   1581300   963.62283     -32291.893      159.30972     -32132.583      434.5179       23.496         23.496         108.24801      0              0              0            
   1581400   947.62655     -32289.319      156.66515     -32132.654      1283.0308      23.496         23.496         107.14808      0              0              0            
   1581500   960.27481     -32287.257      158.75621     -32128.5        1920.2011      23.496         23.496         107.25175      0              0              0            
   1581600   984.24439     -32292.66       162.71895     -32129.941      718.34304      23.496         23.496         108.94695      0              0              0            
   1581700   912.57798     -32279.858      150.87079     -32128.988      903.70576      23.496         23.496         109.43337      0              0              0            
   1581800   936.16343     -32285.068      154.77003     -32130.298      687.99241      23.496         23.496         109.12435      0              0              0            
   1581900   916.52876     -32284.224      151.52395     -32132.7       -199.3581       23.496         23.496         109.0935       0              0              0            
   1582000   924.44881     -32285.087      152.83332     -32132.254      688.58074      23.496         23.496         108.53038      0              0              0            
   1582100   933.5484      -32287.237      154.3377      -32132.9        665.79912      23.496         23.496         108.4413       0              0              0            
   1582200   961.18888     -32288.747      158.90733     -32129.839     -127.51966      23.496         23.496         108.9105       0              0              0            
   1582300   915.31588     -32283.025      151.32343     -32131.702      221.21278      23.496         23.496         109.12147      0              0              0            
   1582400   915.39105     -32285.316      151.33586     -32133.98       242.17402      23.496         23.496         109.28021      0              0              0            
   1582500   929.6186      -32291.196      153.68801     -32137.508     -168.65858      23.496         23.496         109.32032      0              0              0            
   1582600   932.12734     -32294.155      154.10276     -32140.052     -1144.5514      23.496         23.496         109.9365       0              0              0            
   1582700   921.73255     -32293.024      152.38426     -32140.639     -874.02453      23.496         23.496         109.66563      0              0              0            
   1582800   920.92983     -32294.257      152.25155     -32142.005      611.47963      23.496         23.496         108.51572      0              0              0            
   1582900   940.51622     -32295.252      155.48964     -32139.762      57.865215      23.496         23.496         108.88168      0              0              0            
   1583000   925.26488     -32290.765      152.96824     -32137.797     -290.09003      23.496         23.496         109.0524       0              0              0            
   1583100   957.11936     -32293.095      158.23454     -32134.861      843.70498      23.496         23.496         108.77085      0              0              0            
   1583200   932.51964     -32288.912      154.16762     -32134.745      1642.3472      23.496         23.496         108.74219      0              0              0            
   1583300   938.90542     -32291.491      155.22334     -32136.268     -304.22278      23.496         23.496         109.46494      0              0              0            
   1583400   940.54436     -32290.771      155.4943      -32135.277      928.66108      23.496         23.496         109.27592      0              0              0            
   1583500   943.95584     -32290.057      156.0583      -32133.999      237.55423      23.496         23.496         109.54152      0              0              0            
   1583600   937.40759     -32288.339      154.97571     -32133.363      511.34491      23.496         23.496         109.98175      0              0              0            
   1583700   959.70899     -32290.27       158.66267     -32131.607     -179.14537      23.496         23.496         109.8588       0              0              0            
   1583800   955.84668     -32290.649      158.02413     -32132.625      400.76847      23.496         23.496         108.64661      0              0              0            
   1583900   981.78731     -32291.192      162.31274     -32128.879      1574.6422      23.496         23.496         108.0304       0              0              0            
   1584000   960.03442     -32289.431      158.71647     -32130.715      668.53748      23.496         23.496         108.54835      0              0              0            
   1584100   980.23517     -32292.795      162.05613     -32130.739      48.965235      23.496         23.496         109.67642      0              0              0            
   1584200   919.75463     -32283.892      152.05726     -32131.835     -265.83881      23.496         23.496         109.97381      0              0              0            
   1584300   971.47139     -32290.947      160.60727     -32130.339      270.42146      23.496         23.496         109.20622      0              0              0            
   1584400   997.75887     -32296.623      164.95321     -32131.67       1636.8728      23.496         23.496         107.84933      0              0              0            
   1584500   945.08925     -32288.212      156.24568     -32131.967      1468.6711      23.496         23.496         108.06528      0              0              0            
   1584600   959.89443     -32290.052      158.69332     -32131.359      470.69729      23.496         23.496         108.40705      0              0              0            
   1584700   962.16598     -32288.702      159.06886     -32129.633      1087.9854      23.496         23.496         108.67763      0              0              0            
   1584800   965.51701     -32292.124      159.62287     -32132.501     -27.400697      23.496         23.496         109.21914      0              0              0            
   1584900   973.6971      -32290.693      160.97523     -32129.718      897.27247      23.496         23.496         109.52841      0              0              0            
   1585000   965.69555     -32288.263      159.65239     -32128.611      848.94311      23.496         23.496         109.94872      0              0              0            
   1585100   978.5892      -32288.462      161.78401     -32126.678      1173.4065      23.496         23.496         109.67264      0              0              0            
   1585200   969.45944     -32288.108      160.27465     -32127.834      322.44164      23.496         23.496         109.91907      0              0              0            
   1585300   942.43568     -32282.393      155.80698     -32126.586     -1134.2635      23.496         23.496         110.05504      0              0              0            
   1585400   985.01505     -32284.2        162.84636     -32121.354      679.90336      23.496         23.496         109.46632      0              0              0            
   1585500   982.85235     -32283.123      162.48881     -32120.634     -29.394528      23.496         23.496         110.04428      0              0              0            
   1585600   969.45999     -32279.754      160.27474     -32119.479     -289.74317      23.496         23.496         110.88917      0              0              0            
   1585700   899.99952     -32270.473      148.79127     -32121.682      79.68949       23.496         23.496         111.26744      0              0              0            
   1585800   962.21434     -32283.133      159.07686     -32124.056     -486.61998      23.496         23.496         110.79305      0              0              0            
   1585900   975.02398     -32286.484      161.1946      -32125.289     -47.933031      23.496         23.496         109.97278      0              0              0            
   1586000   955.32087     -32279.949      157.93721     -32122.012     -126.94272      23.496         23.496         110.08847      0              0              0            
   1586100   961.99191     -32277.548      159.04009     -32118.508      877.29804      23.496         23.496         110.64527      0              0              0            
   1586200   987.53109     -32280.722      163.26232     -32117.46       644.76499      23.496         23.496         111.48056      0              0              0            
   1586300   984.92886     -32282.142      162.83211     -32119.31       58.172049      23.496         23.496         111.22109      0              0              0            
   1586400   976.77333     -32282.143      161.48381     -32120.66       479.0951       23.496         23.496         110.20093      0              0              0            
   1586500   962.80189     -32280.879      159.174       -32121.705     -165.58808      23.496         23.496         109.67278      0              0              0            
   1586600   1012.7944     -32286.013      167.43895     -32118.574     -60.646599      23.496         23.496         109.65628      0              0              0            
   1586700   958.9104      -32277.296      158.53064     -32118.766     -335.1737       23.496         23.496         109.68475      0              0              0            
   1586800   991.12956     -32281.574      163.85723     -32117.717      85.380168      23.496         23.496         109.99749      0              0              0            
   1586900   