LAMMPS data file via write_data, version 29 Aug 2024, timestep = 32, units = metal

20608 atoms
4 atom types

-0.2842400868908913 54.9262400868909 xlo xhi
-0.3016286573294457 58.2863882106932 ylo yhi
-0.3355611182061587 64.84345942904254 zlo zhi
10.323267855409316 25.048780767368466 0.24709609543742128 xy xz yz

Masses

1 12.011
2 1.007
3 14.0061
4 16.999

Atoms # atomic

19 1 2.6963131627561143 1.7515711939164815 2.404381877066146 0 0 0
73 1 2.8287654996736595 1.5223118550934385 1.0318467570241583 0 0 0
10441 2 2.2407445108647535 2.127517977656906 0.34890003486779414 0 0 0
19079 3 1.773416008700119 2.7177332474892597 2.9095874417863072 0 0 0
61 1 3.4917862251391147 0.947714914223458 3.231977824918304 0 0 0
65 1 3.6614584565247994 0.5563922106198751 0.5121375066230838 0 0 0
77 1 4.436937261653306 -0.2379676796397853 1.3514696994438624 0 0 0
119 1 4.3391887126757425 -0.00039374253371449175 2.726356510785673 0 0 0
130 1 7.874433955752064 0.8732533546760428 -0.21725726665185624 0 0 0
10464 2 7.531310477018464 -0.009478611368498646 0.3221014289868273 0 0 0
10466 2 7.151093466662293 1.6768741733358898 -0.0762090543872645 0 0 0
10468 2 8.840942847944891 1.1882525255436862 0.17756117027843882 0 0 0
10492 2 9.58695360378932 1.4712211278738794 2.6706909627057063 0 0 0
19593 4 10.563031666640166 2.7522399730496128 0.3660805418054353 0 0 0
81 1 12.28869433978313 1.6620594128685786 1.536280183393055 0 0 0
85 1 11.782429182617722 2.8367656657069857 0.9802783818817735 0 0 0
147 1 13.493820364438784 1.6412175488947252 2.170885202781371 0 0 0
10449 2 13.833559896622072 0.7114440278114802 2.6175601107273003 0 0 0
10451 2 11.687629984694961 0.75863198874184 1.4586067442622592 0 0 0
89 1 14.302827018564477 2.7783894848694612 2.2684270499751333 0 0 0
2611 1 16.498933206201567 1.751571193916493 2.4043818770661405 0 0 0
2653 1 17.294406268584574 0.9477149142234544 3.231977824918301 0 0 0
2657 1 17.464078499970242 0.5563922106198851 0.5121375066230738 0 0 0
2665 1 16.631385543119123 1.5223118550934336 1.0318467570241538 0 0 0
12617 2 16.043364554310216 2.127517977656907 0.34890003486779325 0 0 0
19207 3 15.576036052145598 2.71773324748926 2.9095874417863135 0 0 0
2669 1 18.239557305098735 -0.23796767963977788 1.3514696994438624 0 0 0
2711 1 18.141808756121183 -0.0003937425337122713 2.7263565107856755 0 0 0
12640 2 21.333930520463912 -0.009478611368496925 0.3221014289868333 0 0 0
12642 2 20.953713510107733 1.6768741733358945 -0.07620905438725817 0 0 0
2722 1 21.677053999197515 0.8732533546760342 -0.21725726665185804 0 0 0
12644 2 22.643562891390353 1.1882525255436853 0.17756117027842605 0 0 0
12668 2 23.38957364723476 1.4712211278738725 2.6706909627057134 0 0 0
19849 4 24.36565171008565 2.752239973049612 0.3660805418054435 0 0 0
2673 1 26.09131438322858 1.6620594128685855 1.5362801833930535 0 0 0
2677 1 25.58504922606319 2.8367656657069844 0.9802783818817673 0 0 0
2681 1 28.105447062009937 2.7783894848694515 2.2684270499751267 0 0 0
2739 1 27.29644040788423 1.6412175488947238 2.1708852027813723 0 0 0
12625 2 27.636179940067514 0.7114440278114802 2.617560110727299 0 0 0
12627 2 25.490250028140405 0.7586319887418465 1.4586067442622646 0 0 0
5203 1 30.30155324964706 1.75157119391649 2.4043818770661414 0 0 0
5245 1 31.09702631203005 0.9477149142234584 3.2319778249183018 0 0 0
5249 1 31.266698543415654 0.5563922106198851 0.5121375066230642 0 0 0
5257 1 30.434005586564535 1.5223118550934316 1.0318467570241543 0 0 0
5261 1 32.04217734854419 -0.23796767963977877 1.3514696994438664 0 0 0
5303 1 31.944428799566637 -0.00039374253370194623 2.726356510785673 0 0 0
14793 2 29.845984597755624 2.1275179776569026 0.34890003486779814 0 0 0
19335 3 29.378656095591058 2.71773324748926 2.9095874417863135 0 0 0
5314 1 35.479674042642976 0.8732533546760528 -0.21725726665186018 0 0 0
14816 2 35.13655056390932 -0.009478611368502254 0.3221014289868263 0 0 0
14818 2 34.75633355355319 1.6768741733358943 -0.07620905438726266 0 0 0
5269 1 39.38766926950861 2.836765665706969 0.980278381881774 0 0 0
14803 2 39.292870071585796 0.7586319887418584 1.4586067442622646 0 0 0
14820 2 36.44618293483578 1.1882525255436789 0.1775611702784317 0 0 0
14844 2 37.192193690680234 1.471221127873872 2.6706909627057214 0 0 0
20105 4 38.168271753531045 2.752239973049617 0.36608054180542154 0 0 0
5265 1 39.89393442667402 1.6620594128685762 1.536280183393068 0 0 0
5273 1 41.908067105455366 2.778389484869461 2.2684270499751413 0 0 0
5331 1 41.09906045132964 1.6412175488947207 2.170885202781366 0 0 0
14801 2 41.43879998351296 0.7114440278114729 2.61756011072731 0 0 0
19463 3 43.181276139036484 2.7177332474892637 2.9095874417863175 0 0 0
7795 1 44.104173293092465 1.7515711939164758 2.4043818770661542 0 0 0
7837 1 44.899646355475475 0.9477149142234855 3.231977824918308 0 0 0
7841 1 45.06931858686112 0.5563922106198576 0.5121375066230702 0 0 0
7849 1 44.23662563000997 1.5223118550934347 1.0318467570241685 0 0 0
7853 1 45.844797391989616 -0.23796767963978316 1.3514696994438435 0 0 0
7895 1 45.74704884301208 -0.00039374253370699774 2.726356510785661 0 0 0
16969 2 43.64860464120107 2.1275179776569066 0.34890003486779714 0 0 0
7906 1 49.2822940860884 0.8732533546760386 -0.21725726665187298 0 0 0
16992 2 48.939170607354846 -0.009478611368501866 0.32210142898682265 0 0 0
16994 2 48.55895359699861 1.6768741733358825 -0.0762090543872686 0 0 0
16996 2 50.248802978281255 1.1882525255437004 0.17756117027844803 0 0 0
7857 1 53.69655447011945 1.6620594128685902 1.5362801833930442 0 0 0
7861 1 53.1902893129541 2.8367656657069946 0.9802783818817953 0 0 0
16979 2 53.09549011503131 0.7586319887418307 1.4586067442622535 0 0 0
17020 2 50.99481373412567 1.4712211278738685 2.6706909627057205 0 0 0
20361 4 51.9708917969765 2.752239973049617 0.3660805418054222 0 0 0
7865 1 55.71068714890089 2.7783894848694572 2.2684270499751586 0 0 0
7923 1 54.90168049477516 1.641217548894726 2.170885202781391 0 0 0
16977 2 55.24142002695839 0.7114440278114795 2.617560110727301 0 0 0
88 1 5.9748309482959785 6.4091493424669315 -0.3261522972782489 0 0 0
110 1 6.286287511123547 5.3458068107682974 0.5468852880971398 0 0 0
136 1 5.546958490951846 4.19136046707395 0.31057030062728147 0 0 0
10438 2 5.627230782678698 3.3418742215614303 0.9841357622404858 0 0 0
10504 2 6.5142248784749075 4.165761122492162 2.962177550525275 0 0 0
155 1 10.081364261299775 3.9235850722911976 -0.28592669858758774 0 0 0
162 1 7.423774568756391 4.4427731010873615 2.4204179612783694 0 0 0
10485 2 9.852794375819027 4.708606767463009 0.4393236650048162 0 0 0
10500 2 8.183525259285938 4.743745036384162 3.13793889464408 0 0 0
10502 2 7.789549864339611 3.5786433626549097 1.8575114995513775 0 0 0
19600 4 7.190991450106173 5.544558686854223 1.5605185095689202 0 0 0
101 1 12.559742735616942 3.9858983045030842 1.0874281188423633 0 0 0
139 1 13.793586358588833 3.943515589527457 1.697341890781123 0 0 0
10433 2 10.71341955293059 6.844637799079728 1.3415368877388656 0 0 0
10453 2 12.204309923745924 4.926015000438713 0.6771172571221091 0 0 0
10455 2 14.389061004238561 4.849853291918575 1.7498500730846944 0 0 0
2680 1 19.77745099174144 6.409149342466943 -0.3261522972782629 0 0 0
2702 1 20.088907554568994 5.345806810768281 0.5468852880971462 0 0 0
2728 1 19.349578534397303 4.191360467073963 0.3105703006272839 0 0 0
2754 1 21.22639461220185 4.4427731010873615 2.4204179612783716 0 0 0
12614 2 19.429850826124124 3.3418742215614237 0.9841357622404967 0 0 0
12680 2 20.316844921920378 4.1657611224921665 2.962177550525275 0 0 0
19856 4 20.993611493551636 5.544558686854226 1.5605185095689154 0 0 0
2747 1 23.883984304745212 3.923585072291196 -0.28592669858758785 0 0 0
12609 2 24.516039596376043 6.844637799079728 1.3415368877388651 0 0 0
12661 2 23.655414419264478 4.708606767463006 0.4393236650048153 0 0 0
12676 2 21.986145302731394 4.7437450363841585 3.1379388946440776 0 0 0
12678 2 21.59216990778507 3.5786433626549097 1.857511499551377 0 0 0
2693 1 26.3623627790624 3.9858983045030727 1.0874281188423471 0 0 0
2731 1 27.5962064020343 3.943515589527457 1.6973418907811217 0 0 0
12629 2 26.00692996719138 4.926015000438709 0.6771172571221165 0 0 0
12631 2 28.191681047684007 4.849853291918577 1.7498500730847006 0 0 0
5272 1 33.5800710351869 6.409149342466926 -0.3261522972782484 0 0 0
5294 1 33.89152759801444 5.345806810768295 0.546885288097136 0 0 0
5320 1 33.152198577842704 4.191360467073948 0.3105703006272766 0 0 0
5346 1 35.02901465564726 4.4427731010873615 2.4204179612783694 0 0 0
14790 2 33.232470869569575 3.3418742215614303 0.9841357622404956 0 0 0
14852 2 35.78876534617681 4.743745036384162 3.1379388946440994 0 0 0
14854 2 35.39478995123051 3.5786433626549026 1.8575114995513802 0 0 0
14856 2 34.119464965365786 4.16576112249216 2.9621775505252628 0 0 0
20112 4 34.79623153699705 5.544558686854222 1.5605185095689282 0 0 0
5339 1 37.686604348190656 3.9235850722911993 -0.2859266985875747 0 0 0
14785 2 38.31865963982146 6.844637799079727 1.3415368877388758 0 0 0
14837 2 37.45803446270988 4.708606767462995 0.4393236650048146 0 0 0
5285 1 40.16498282250785 3.9858983045031215 1.087428118842372 0 0 0
5323 1 41.398826445479756 3.9435155895274625 1.697341890781119 0 0 0
14805 2 39.80955001063685 4.926015000438708 0.6771172571221054 0 0 0
14807 2 41.99430109112949 4.849853291918557 1.7498500730846909 0 0 0
7864 1 47.382691078632284 6.4091493424669 -0.3261522972782634 0 0 0
7886 1 47.69414764145991 5.345806810768313 0.5468852880971411 0 0 0
7912 1 46.95481862128816 4.19136046707394 0.31057030062729246 0 0 0
7938 1 48.8316346990927 4.4427731010873615 2.420417961278363 0 0 0
16966 2 47.03509091301502 3.3418742215614303 0.9841357622404907 0 0 0
17028 2 49.59138538962231 4.743745036384177 3.137938894644103 0 0 0
17030 2 49.197409994675965 3.5786433626549026 1.8575114995513673 0 0 0
17032 2 47.92208500881129 4.1657611224921665 2.9621775505252748 0 0 0
20368 4 48.59885158044251 5.544558686854222 1.560518509568931 0 0 0
7877 1 53.96760286595326 3.985898304503086 1.0874281188423471 0 0 0
7931 1 51.48922439163612 3.923585072291202 -0.2859266985875971 0 0 0
16961 2 52.12127968326692 6.844637799079737 1.3415368877388585 0 0 0
16981 2 53.61217005408228 4.92601500043871 0.6771172571221014 0 0 0
17013 2 51.26065450615533 4.708606767463001 0.43932366500481795 0 0 0
7915 1 55.201446488925185 3.9435155895274474 1.6973418907811346 0 0 0
16983 2 55.79692113457491 4.849853291918578 1.7498500730846958 0 0 0
154 1 3.3517446449154136 7.7099732049202805 2.138162814893017 0 0 0
10476 2 3.2855444117398456 7.007723928164801 2.97116114904826 0 0 0
10480 2 2.3873125239593778 7.756426264420631 1.6329204187951971 0 0 0
10422 2 5.651766408745672 7.229873846594847 3.1521150925674806 0 0 0
10436 2 6.654505273868022 7.3206778458565465 -0.14125698932948 0 0 0
10478 2 4.109026896582451 7.370685325200496 1.4256585422518195 0 0 0
10482 2 5.003094992821116 9.75212999477414 0.33931791285257423 0 0 0
10484 2 6.648888709976849 10.387544543845484 0.1429302028509089 0 0 0
19598 4 3.6406107715239324 9.025260841592463 2.604408965011239 0 0 0
95 1 10.589681526702877 7.714630429287296 0.7068546125712329 0 0 0
10416 2 9.01435856695103 10.442864787470727 2.6989996890782413 0 0 0
35 1 12.079236569740928 8.145602738726486 3.2644671542163404 0 0 0
47 1 13.179533817996855 10.000215528269987 2.1505979010728993 0 0 0
71 1 11.307822298916912 8.886229596260563 1.0100499003561596 0 0 0
79 1 11.112859615946524 9.940460337539967 0.1057919365668692 0 0 0
131 1 14.151043123877779 10.123510386166584 1.1602951486163586 0 0 0
10425 2 14.118259747931061 9.445077599632436 0.3118019181346358 0 0 0
19073 3 12.170089122489477 8.98944891927092 2.122993142825147 0 0 0
2746 1 17.15436468836085 7.709973204920277 2.1381628148930165 0 0 0
12652 2 17.08816445518529 7.007723928164801 2.9711611490482617 0 0 0
12654 2 17.911646940027918 7.370685325200486 1.4256585422518187 0 0 0
12656 2 16.189932567404853 7.756426264420631 1.6329204187951953 0 0 0
19854 4 17.443230814969382 9.025260841592463 2.6044089650112365 0 0 0
12598 2 19.45438645219115 7.229873846594847 3.1521150925674797 0 0 0
12612 2 20.457125317313476 7.320677845856534 -0.14125698932948214 0 0 0
12658 2 18.805715036266548 9.752129994774123 0.3393179128525688 0 0 0
12660 2 20.451508753422292 10.387544543845486 0.14293020285092012 0 0 0
2671 1 24.915479659391984 9.94046033753998 0.10579193656686858 0 0 0
2687 1 24.392301570148305 7.714630429287294 0.7068546125712301 0 0 0
12592 2 22.81697861039647 10.442864787470727 2.6989996890782395 0 0 0
2627 1 25.881856613186354 8.145602738726485 3.2644671542163413 0 0 0
2639 1 26.982153861442313 10.000215528269988 2.15059790107289 0 0 0
2663 1 25.110442342362365 8.886229596260561 1.0100499003561645 0 0 0
2723 1 27.953663167323185 10.123510386166576 1.160295148616368 0 0 0
12601 2 27.920879791376507 9.445077599632427 0.31180191813463093 0 0 0
19201 3 25.97270916593493 8.989448919270915 2.122993142825143 0 0 0
5338 1 30.956984731806294 7.709973204920275 2.138162814893023 0 0 0
14828 2 30.890784498630765 7.007723928164797 2.9711611490482626 0 0 0
14830 2 31.714266983473344 7.370685325200487 1.4256585422518102 0 0 0
14832 2 29.992552610850286 7.756426264420621 1.6329204187951927 0 0 0
20110 4 31.245850858414837 9.025260841592463 2.6044089650112574 0 0 0
14774 2 33.25700649563659 7.229873846594845 3.152115092567478 0 0 0
14788 2 34.25974536075886 7.320677845856558 -0.14125698932947206 0 0 0
14834 2 32.60833507971198 9.752129994774123 0.33931791285256135 0 0 0
14836 2 34.25412879686768 10.387544543845486 0.14293020285091163 0 0 0
5255 1 38.91306238580784 8.886229596260565 1.01004990035616 0 0 0
5263 1 38.71809970283742 9.940460337539982 0.10579193656686237 0 0 0
5279 1 38.19492161359375 7.7146304292872925 0.706854612571207 0 0 0
14768 2 36.61959865384193 10.442864787470734 2.6989996890782444 0 0 0
5219 1 39.68447665663182 8.145602738726481 3.2644671542163395 0 0 0
5231 1 40.78477390488773 10.000215528269969 2.150597901072911 0 0 0
5315 1 41.7562832107687 10.123510386166583 1.1602951486163506 0 0 0
14777 2 41.723499834821915 9.445077599632437 0.31180191813463726 0 0 0
19329 3 39.77532920938033 8.989448919270941 2.1229931428251434 0 0 0
7930 1 44.75960477525179 7.709973204920282 2.1381628148930125 0 0 0
17004 2 44.69340454207622 7.007723928164805 2.9711611490482643 0 0 0
17006 2 45.516887026918766 7.370685325200497 1.4256585422518133 0 0 0
17008 2 43.795172654295705 7.756426264420631 1.6329204187952109 0 0 0
17010 2 46.41095512315748 9.752129994774137 0.33931791285258556 0 0 0
20366 4 45.04847090186026 9.02526084159247 2.6044089650112294 0 0 0
16950 2 47.05962653908199 7.229873846594847 3.152115092567483 0 0 0
16964 2 48.06236540420435 7.320677845856576 -0.14125698932946681 0 0 0
17012 2 48.056748840313205 10.387544543845486 0.14293020285090574 0 0 0
7811 1 53.487096700077274 8.145602738726499 3.264467154216334 0 0 0
7847 1 52.71568242925325 8.886229596260579 1.0100499003561312 0 0 0
7855 1 52.52071974628291 9.940460337539948 0.10579193656688723 0 0 0
7871 1 51.997541657039214 7.714630429287271 0.7068546125712609 0 0 0
16944 2 50.42221869728735 10.44286478747072 2.6989996890782453 0 0 0
19457 3 53.57794925282584 8.989448919270925 2.1229931428251567 0 0 0
7823 1 54.58739394833327 10.000215528269992 2.1505979010728606 0 0 0
7907 1 55.558903254214044 10.123510386166544 1.1602951486164026 0 0 0
16953 2 55.52611987826739 9.44507759963244 0.3118019181346284 0 0 0
10469 2 2.989755937081061 13.293900414798445 0.5541734573809995 0 0 0
151 1 3.4338339735410237 12.948138364939378 1.4915159918379255 0 0 0
10471 2 4.176968087273797 13.672511548372949 1.8215812360586712 0 0 0
10473 2 3.924322678164903 11.987119997697878 1.3268738548888168 0 0 0
68 1 9.401341137021767 11.262204990331526 3.2987543000844464 0 0 0
108 1 10.096391350847789 12.256019117776884 2.6810650369148847 0 0 0
10414 2 10.259478531301921 12.234182059564443 1.605762697250618 0 0 0
19589 4 7.858625385712701 13.416423981273386 0.9490407899404836 0 0 0
39 1 13.266744673309107 10.90516809861947 3.2140900662950855 0 0 0
10439 2 11.66041756225346 10.863001162886537 0.26048501895753545 0 0 0
10444 2 12.106461102269595 13.633335438541913 -0.10618949661965454 0 0 0
19588 4 11.295057087078066 14.275622236279908 2.6656500780682886 0 0 0
57 1 15.251158996220068 11.92300496394692 2.317212415226349 0 0 0
99 1 15.153231341117403 11.066155622139929 1.225718121698228 0 0 0
2743 1 17.236454016986485 12.948138364939371 1.491515991837917 0 0 0
10427 2 15.882043604836563 11.122360536027983 0.4238685065559353 0 0 0
12645 2 16.792375980526508 13.293900414798436 0.5541734573809998 0 0 0
12649 2 17.726942721610374 11.987119997697873 1.3268738548888153 0 0 0
19591 4 16.242978572456245 12.844506870628809 2.5140690455277697 0 0 0
12647 2 17.97958813071926 13.672511548372956 1.8215812360586712 0 0 0
2660 1 23.203961180467214 11.262204990331542 3.298754300084449 0 0 0
2700 1 23.899011394293247 12.256019117776887 2.681065036914881 0 0 0
12590 2 24.062098574747385 12.234182059564443 1.6057626972506198 0 0 0
19845 4 21.661245429158175 13.416423981273393 0.9490407899404856 0 0 0
2631 1 27.06936471675453 10.905168098619457 3.214090066295087 0 0 0
12615 2 25.463037605698936 10.86300116288651 0.26048501895752957 0 0 0
12620 2 25.909081145715064 13.633335438541913 -0.10618949661965227 0 0 0
19844 4 25.097677130523532 14.2756222362799 2.6656500780682855 0 0 0
2649 1 29.053779039665496 11.923004963946918 2.31721241522636 0 0 0
2691 1 28.955851384562862 11.066155622139947 1.2257181216982038 0 0 0
5335 1 31.039074060431904 12.948138364939368 1.49151599183792 0 0 0
12603 2 29.684663648282008 11.12236053602798 0.4238685065559558 0 0 0
14821 2 30.59499602397197 13.293900414798438 0.554173457380998 0 0 0
14823 2 31.78220817416471 13.672511548372944 1.8215812360586712 0 0 0
14825 2 31.52956276505577 11.987119997697873 1.3268738548888153 0 0 0
19847 4 30.045598615901678 12.844506870628809 2.5140690455277683 0 0 0
20101 4 35.46386547260362 13.416423981273406 0.9490407899404814 0 0 0
5252 1 37.00658122391266 11.262204990331517 3.2987543000844455 0 0 0
5292 1 37.701631437738705 12.256019117776894 2.6810650369148803 0 0 0
14766 2 37.86471861819285 12.234182059564443 1.6057626972506303 0 0 0
14791 2 39.26565764914433 10.86300116288652 0.2604850189575289 0 0 0
20100 4 38.90029717396892 14.27562223627992 2.6656500780682815 0 0 0
5223 1 40.87198476019998 10.90516809861946 3.21409006629508 0 0 0
5241 1 42.856399083110944 11.923004963946937 2.3172124152263645 0 0 0
5283 1 42.75847142800829 11.066155622139906 1.225718121698223 0 0 0
14796 2 39.71170118916053 13.633335438541925 -0.10618949661963806 0 0 0
7927 1 44.84169410387735 12.94813836493938 1.491515991837922 0 0 0
14779 2 43.487283691727434 11.122360536027983 0.4238685065559335 0 0 0
16997 2 44.39761606741737 13.293900414798445 0.554173457381004 0 0 0
16999 2 45.58482821761018 13.672511548372933 1.8215812360586539 0 0 0
17001 2 45.33218280850121 11.98711999769787 1.3268738548888073 0 0 0
20103 4 43.84821865934712 12.84450687062881 2.514069045527775 0 0 0
20357 4 49.266485516049066 13.416423981273386 0.9490407899404816 0 0 0
7844 1 50.809201267358134 11.262204990331556 3.298754300084441 0 0 0
7884 1 51.50425148118411 12.256019117776866 2.681065036914899 0 0 0
16942 2 51.66733866163823 12.234182059564455 1.6057626972506074 0 0 0
16967 2 53.068277692589795 10.863001162886535 0.2604850189575338 0 0 0
16972 2 53.51432123260598 13.63333543854193 -0.10618949661964594 0 0 0
20356 4 52.7029172174144 14.275622236279917 2.6656500780682846 0 0 0
7815 1 54.67460480364543 10.905168098619448 3.2140900662950904 0 0 0
7833 1 56.65901912655638 11.923004963946946 2.317212415226381 0 0 0
7875 1 56.56109147145383 11.06615562213994 1.2257181216981816 0 0 0
16955 2 2.0794235613910983 11.122360536027994 0.42386850655596015 1 0 0
20359 4 57.65083870279259 12.844506870628807 2.51406904552776 0 0 0
667 1 5.27713012912943 16.398575412196816 2.4043818768985026 0 0 0
709 1 6.072603192641603 15.594719132781002 3.2319778246451873 0 0 0
713 1 6.242275423995816 15.20339642905236 0.5121375063199487 0 0 0
721 1 5.409582467132939 16.169316073815065 1.031846756985138 0 0 0
767 1 6.92000567951613 14.646610476380163 2.7263565100816343 0 0 0
10985 2 4.821561478303953 16.77452219616065 0.34890003485018956 0 0 0
19111 3 4.3542329728965345 17.364737463871467 2.9095874421006926 0 0 0
725 1 7.017754227968014 14.409036537583876 1.3514696996954665 0 0 0
778 1 10.45525092182108 15.520257572472005 -0.21725726677648693 0 0 0
10982 2 8.208047749318018 17.988878439872945 0.9841357614127739 0 0 0
11008 2 10.11212744375886 14.637525607304976 0.3221014304166891 0 0 0
11010 2 9.731910433619177 16.323878391992018 -0.07620905403541561 0 0 0
11012 2 11.421759814853873 15.835256743471685 0.1775611680967844 0 0 0
11036 2 12.167770564839218 16.118225347160532 2.6706909621418307 0 0 0
19657 4 13.143848631876379 17.399244188413963 0.36608054108174876 0 0 0
729 1 14.869511304254976 16.309063626834746 1.5362801835102966 0 0 0
733 1 14.363246146341897 17.483769882237343 0.9802783827785044 0 0 0
737 1 16.883643983497084 17.42539370026099 2.268427049426184 0 0 0
795 1 16.074637330984068 16.288221763947888 2.1708852027521703 0 0 0
10993 2 16.414376862305378 15.358448242863838 2.6175601083413897 0 0 0
10995 2 14.268446953530901 15.405636202706978 1.4586067438717636 0 0 0
3259 1 19.079750172574876 16.39857541219678 2.404381876898506 0 0 0
3301 1 19.875223236087052 15.594719132780998 3.2319778246451887 0 0 0
3305 1 20.044895467441272 15.203396429052342 0.5121375063199478 0 0 0
3313 1 19.21220251057839 16.16931607381506 1.0318467569851388 0 0 0
3317 1 20.82037427141347 14.409036537583876 1.35146969969546 0 0 0
3359 1 20.72262572296159 14.646610476380163 2.7263565100816343 0 0 0
13161 2 18.62418152174942 16.77452219616065 0.34890003485018456 0 0 0
19239 3 18.15685301634198 17.36473746387147 2.9095874421007024 0 0 0
3370 1 24.257870965266523 15.520257572472001 -0.2172572667764863 0 0 0
13158 2 22.010667792763474 17.98887843987295 0.9841357614127759 0 0 0
13184 2 23.914747487204316 14.637525607304987 0.3221014304166891 0 0 0
13186 2 23.534530477064642 16.323878391992018 -0.07620905403541262 0 0 0
3321 1 28.672131347700407 16.30906362683472 1.536280183510302 0 0 0
3325 1 28.165866189787316 17.48376988223731 0.9802783827785093 0 0 0
13171 2 28.071066996976327 15.405636202706981 1.4586067438717647 0 0 0
13188 2 25.224379858299343 15.835256743471696 0.17756116809677963 0 0 0
13212 2 25.97039060828467 16.118225347160532 2.6706909621418338 0 0 0
19913 4 26.946468675321835 17.399244188413963 0.36608054108174987 0 0 0
3329 1 30.68626402694253 17.425393700261022 2.268427049426174 0 0 0
3387 1 29.87725737442951 16.288221763947845 2.170885202752171 0 0 0
13169 2 30.21699690575085 15.358448242863858 2.61756010834137 0 0 0
19367 3 31.959473059787406 17.364737463871464 2.9095874421007095 0 0 0
5851 1 32.88237021602027 16.398575412196806 2.4043818768984915 0 0 0
5893 1 33.67784327953253 15.594719132781005 3.2319778246451976 0 0 0
5897 1 33.84751551088669 15.203396429052345 0.5121375063199529 0 0 0
5905 1 33.01482255402384 16.169316073815025 1.0318467569851528 0 0 0
5909 1 34.62299431485889 14.409036537583876 1.3514696996954643 0 0 0
5951 1 34.52524576640703 14.646610476380154 2.7263565100816347 0 0 0
15334 2 35.8132878362089 17.98887843987295 0.9841357614127677 0 0 0
15337 2 32.42680156519483 16.77452219616065 0.34890003485017845 0 0 0
5962 1 38.06049100871199 15.520257572472001 -0.21725726677647517 0 0 0
15360 2 37.717367530649774 14.637525607304987 0.32210143041667044 0 0 0
15362 2 37.33715052051009 16.323878391992 -0.07620905403542255 0 0 0
15364 2 39.026999901744794 15.835256743471703 0.17756116809679973 0 0 0
5913 1 42.47475139114581 16.309063626834735 1.5362801835102768 0 0 0
5917 1 41.96848623323278 17.48376988223733 0.9802783827785002 0 0 0
15347 2 41.8736870404218 15.405636202706978 1.4586067438717694 0 0 0
15388 2 39.77301065173012 16.118225347160518 2.670690962141835 0 0 0
20169 4 40.749088718767354 17.399244188413963 0.3660805410817631 0 0 0
5921 1 44.48888407038797 17.42539370026102 2.2684270494261813 0 0 0
5979 1 43.679877417875 16.28822176394785 2.1708852027522023 0 0 0
8443 1 46.68499025946575 16.398575412196774 2.4043818768985075 0 0 0
8497 1 46.81744259746924 16.169316073815047 1.0318467569851457 0 0 0
15345 2 44.01961694919624 15.358448242863858 2.617560108341377 0 0 0
17513 2 46.22942160864027 16.774522196160618 0.3489000348501942 0 0 0
19495 3 45.76209310323287 17.36473746387147 2.909587442100703 0 0 0
8485 1 47.48046332297796 15.594719132781014 3.231977824645181 0 0 0
8489 1 47.65013555433213 15.203396429052345 0.5121375063199518 0 0 0
8501 1 48.42561435830437 14.409036537583882 1.3514696996954516 0 0 0
8543 1 48.327865809852504 14.646610476380163 2.726356510081628 0 0 0
17510 2 49.61590787965438 17.98887843987295 0.9841357614127677 0 0 0
8554 1 51.863111052157365 15.520257572472012 -0.21725726677648316 0 0 0
17536 2 51.51998757409522 14.637525607304969 0.3221014304166963 0 0 0
17538 2 51.13977056395552 16.323878391992007 -0.07620905403540934 0 0 0
17540 2 52.82961994519021 15.835256743471689 0.17756116809678096 0 0 0
17564 2 53.57563069517555 16.11822534716052 2.67069096214184 0 0 0
8505 1 56.27737143459134 16.309063626834714 1.536280183510287 0 0 0
8509 1 55.77110627667818 17.48376988223733 0.9802783827784791 0 0 0
8571 1 57.48249746132041 16.288221763947845 2.1708852027521828 0 0 0
17523 2 55.67630708386723 15.405636202707 1.4586067438717734 0 0 0
20425 4 54.55170876221275 17.399244188413963 0.36608054108177396 0 0 0
8513 1 58.29150411383347 17.42539370026103 2.2684270494261596 0 0 0
17521 2 57.82223699264173 15.358448242863858 2.617560108341374 0 0 0
11020 2 5.866361371467147 21.654728146445965 2.971161148589023 0 0 0
736 1 8.5556479129534 21.05615355980024 -0.32615229782064803 0 0 0
758 1 8.867104475814196 19.992811028841427 0.5468852872619774 0 0 0
784 1 8.12777545679355 18.83836468434107 0.3105702987109042 0 0 0
810 1 10.004591531201655 19.089777316473427 2.4204179618159176 0 0 0
11046 2 10.370366832177414 18.225647580695327 1.8575114994234185 0 0 0
11048 2 9.095041841803589 18.8127653314697 2.962177550014954 0 0 0
19664 4 9.771808410737163 20.191562903500827 1.5605185122338467 0 0 0
803 1 12.662181227992312 18.570589289262138 -0.2859266985501615 0 0 0
10977 2 13.294236519111495 21.491642013446707 1.3415368849870406 0 0 0
11029 2 12.43361134349968 19.355610984101208 0.4393236655922111 0 0 0
11044 2 10.764342218485178 19.390749255231825 3.1379388967276323 0 0 0
749 1 15.140559698124845 18.63290251991979 1.087428120545113 0 0 0
787 1 16.374403323023852 18.59051980608638 1.6973418905755795 0 0 0
10997 2 14.78512688428141 19.573019216031785 0.6771172595613835 0 0 0
10999 2 16.969877968556244 19.496857506875653 1.749850072343892 0 0 0
13196 2 19.668981414912594 21.65472814644597 2.9711611485890184 0 0 0
3328 1 22.358267956398862 21.05615355980024 -0.3261522978206336 0 0 0
3350 1 22.669724519259645 19.99281102884144 0.5468852872619738 0 0 0
3376 1 21.930395500238998 18.83836468434106 0.31057029871092484 0 0 0
3402 1 23.80721157464711 19.08977731647343 2.4204179618159114 0 0 0
13220 2 24.566962261930627 19.390749255231825 3.137938896727633 0 0 0
13222 2 24.172986875622886 18.225647580695348 1.8575114994234185 0 0 0
13224 2 22.89766188524905 18.8127653314697 2.9621775500149554 0 0 0
19920 4 23.57442845418262 20.19156290350083 1.5605185122338494 0 0 0
3395 1 26.464801271437768 18.57058928926214 -0.2859266985501667 0 0 0
13153 2 27.096856562556976 21.491642013446683 1.3415368849870561 0 0 0
13173 2 28.587746927726847 19.573019216031756 0.6771172595613935 0 0 0
13205 2 26.236231386945107 19.355610984101208 0.439323665592205 0 0 0
3341 1 28.943179741570294 18.632902519919806 1.0874281205451097 0 0 0
3379 1 30.177023366469303 18.590519806086377 1.6973418905755746 0 0 0
13175 2 30.772498012001677 19.496857506875653 1.749850072343891 0 0 0
5968 1 35.73301554368446 18.838364684341077 0.3105702987109275 0 0 0
15372 2 33.47160145835801 21.654728146445965 2.971161148589022 0 0 0
5920 1 36.16088799984437 21.056153559800247 -0.3261522978206336 0 0 0
5942 1 36.47234456270513 19.99281102884141 0.5468852872619694 0 0 0
5994 1 37.60983161809252 19.089777316473427 2.4204179618159247 0 0 0
15396 2 38.369582305376085 19.39074925523184 3.1379388967276407 0 0 0
15398 2 37.97560691906833 18.225647580695323 1.8575114994234168 0 0 0
15400 2 36.700281928694466 18.8127653314697 2.9621775500149456 0 0 0
20176 4 37.37704849762808 20.191562903500813 1.5605185122338445 0 0 0
5933 1 42.74579978501572 18.632902519919796 1.0874281205450964 0 0 0
5987 1 40.267421314883144 18.570589289262116 -0.2859266985501755 0 0 0
15329 2 40.89947660600237 21.491642013446697 1.3415368849870548 0 0 0
15349 2 42.39036697117233 19.573019216031756 0.6771172595613881 0 0 0
15381 2 40.038851430390594 19.355610984101208 0.43932366559221664 0 0 0
5971 1 43.97964340991478 18.59051980608638 1.697341890575584 0 0 0
15351 2 44.57511805544712 19.49685750687565 1.7498500723438941 0 0 0
8512 1 49.96350804328974 21.056153559800254 -0.3261522978206336 0 0 0
8534 1 50.27496460615052 19.99281102884144 0.5468852872619747 0 0 0
8560 1 49.53563558712988 18.838364684341066 0.3105702987109317 0 0 0
17548 2 47.27422150180346 21.654728146445965 2.9711611485890215 0 0 0
8579 1 54.070041358328616 18.570589289262124 -0.2859266985501698 0 0 0
8586 1 51.41245166153796 19.08977731647343 2.420417961815924 0 0 0
17557 2 53.84147147383607 19.355610984101208 0.43932366559218455 0 0 0
17572 2 52.172202348821514 19.390749255231853 3.137938896727628 0 0 0
17574 2 51.7782269625138 18.225647580695355 1.8575114994234252 0 0 0
17576 2 50.50290197213996 18.81276533146969 2.962177550014949 0 0 0
20432 4 51.17966854107351 20.19156290350083 1.5605185122338527 0 0 0
8525 1 56.5484198284612 18.6329025199198 1.08742812054513 0 0 0
17505 2 54.70209664944782 21.4916420134467 1.3415368849870406 0 0 0
17525 2 56.19298701461766 19.573019216031778 0.677117259561401 0 0 0