ITEM: TIMESTEP
0
ITEM: NUMBER OF ATOMS
20608
ITEM: BOX BOUNDS xy xz yz pp pp pp
0.0000000000000000e+00 8.9649836823046996e+01 1.0216973306150429e+01
0.0000000000000000e+00 5.8229311399397211e+01 2.4790863516896568e+01
0.0000000000000000e+00 6.4507898310836396e+01 2.4455184603345090e-01
ITEM: ATOMS id type x y z fx fy fz
1 1 12.3027 6.05262 7.11941 1.92792e-316 0 1.26297e-306
2 1 10.1098 8.50471 9.00756 0 0 0
3 1 10.9044 7.15405 5.20998 0 0 0
4 1 11.5081 7.40328 10.917 0 0 0
5 1 13.6763 6.0332 7.38777 0 0 0
6 1 8.73616 8.52413 8.73921 0 0 0
7 1 13.3051 7.21831 5.37351 0 0 0
8 1 9.10734 7.33902 10.7535 0 0 0
9 1 15.062 9.02669 7.3181 0 0 0
10 1 7.3505 5.53064 8.80888 0 0 0
11 1 15.4007 7.81625 6.74188 0 0 0
12 1 7.0118 6.74108 9.38509 0 0 0
13 1 15.4066 5.78621 5.55832 0 0 0
14 1 7.00583 8.77112 10.5687 0 0 0
15 1 16.0786 9.91779 7.66692 0 0 0
16 1 6.33389 4.63954 8.46005 0 0 0
17 1 14.193 5.4115 8.50811 0 0 0
18 1 8.21946 9.14583 7.61887 0 0 0
19 1 2.96371 2.01782 2.70288 0 0 0
20 1 19.4488 12.5395 13.4241 0 0 0
21 1 15.0619 4.70099 4.78632 0 0 0
22 1 7.3506 9.85633 11.3406 0 0 0
23 1 14.445 6.73244 6.26485 0 0 0
24 1 7.96744 7.82489 9.86213 0 0 0
25 1 16.7278 7.4666 6.47385 0 0 0
26 1 5.68464 7.09073 9.65312 0 0 0
27 1 17.3924 14.5115 8.39232 0 0 0
28 1 5.0201 0.045848 7.73466 0 0 0
29 1 17.4789 13.7163 6.12599 0 0 0
30 1 4.93354 0.841003 10.001 0 0 0
31 1 11.4339 5.43033 8.00817 0 0 0
32 1 10.9786 9.12699 8.1188 0 0 0
33 1 16.7367 6.18585 5.7454 0 0 0
34 1 5.67573 8.37148 10.3816 0 0 0
35 1 12.2222 8.35302 3.56326 0 0 0
36 1 10.1902 6.20431 12.5637 0 0 0
37 1 15.1966 0.211767 7.06813 0 0 0
38 1 7.21581 14.3456 9.05884 0 0 0
39 1 13.3925 11.0956 3.53326 0 0 0
40 1 9.01991 3.46174 12.5937 0 0 0
41 1 17.7403 8.35049 6.83477 0 0 0
42 1 4.67217 6.20683 9.2922 0 0 0
43 1 2.40771 3.98901 4.11593 0 0 0
44 1 20.0047 10.5683 12.011 0 0 0
45 1 16.4748 12.3464 7.83497 0 0 0
46 1 5.93766 2.21094 8.29201 0 0 0
47 1 13.3331 10.2103 2.46065 0 0 0
48 1 9.07936 4.34703 13.6663 0 0 0
49 1 17.4128 9.55595 7.43437 0 0 0
50 1 4.99964 5.00138 8.6926 0 0 0
51 1 3.74792 4.33664 4.34896 0 0 0
52 1 18.6645 10.2207 11.778 0 0 0
53 1 12.0717 6.79229 5.87635 0 0 0
54 1 10.3408 7.76504 10.2506 0 0 0
55 1 13.0522 3.09164 11.1762 0 0 0
56 1 9.3603 11.4657 4.95082 0 0 0
57 1 15.3774 12.0993 2.61854 0 0 0
58 1 7.03507 2.45801 13.5084 0 0 0
59 1 11.9354 4.79718 9.12738 0 0 0
60 1 10.477 9.76015 6.99959 0 0 0
61 1 3.73777 1.23059 3.55777 0 0 0
62 1 18.6747 13.3267 12.5692 0 0 0
63 1 4.0814 5.41609 5.16789 0 0 0
64 1 18.3311 9.14124 10.9591 0 0 0
65 1 3.90829 0.841661 0.806349 0 0 0
66 1 18.5042 13.7157 15.3206 0 0 0
67 1 12.8331 3.12483 12.5513 0 0 0
68 1 9.57931 11.4325 3.57567 0 0 0
69 1 13.3965 7.97472 4.22494 0 0 0
70 1 9.01595 6.58261 11.902 0 0 0
71 1 11.4583 9.09162 1.31257 0 0 0
72 1 10.9542 5.46571 14.8144 0 0 0
73 1 3.06859 1.81578 1.33499 0 0 0
74 1 19.3439 12.7415 14.792 0 0 0
75 1 13.313 4.77675 9.39638 0 0 0
76 1 9.09949 9.78058 6.73059 0 0 0
77 1 4.67388 0.0695073 1.66285 0 0 0
78 1 17.7386 14.4878 14.4641 0 0 0
79 1 11.2945 10.1587 0.433493 0 0 0
80 1 11.118 4.39864 15.6935 0 0 0
81 1 12.4196 1.92616 1.84815 0 0 0
82 1 9.99291 12.6312 14.2788 0 0 0
83 1 16.8387 12.551 6.50836 0 0 0
84 1 5.57371 2.00635 9.61861 0 0 0
85 1 11.9428 3.11117 1.29967 0 0 0
86 1 10.4696 11.4462 14.8273 0 0 0
87 1 16.0824 7.89753 16.0984 0 0 0
88 1 6.33005 6.6598 0.0285447 0 0 0
89 1 14.4207 3.0464 2.56822 0 0 0
90 1 7.99176 11.5109 13.5588 0 0 0
91 1 10.9829 7.93919 4.06932 0 0 0
92 1 11.4296 6.61814 12.0577 0 0 0
93 1 14.4093 12.0279 3.61776 0 0 0
94 1 8.00318 2.52946 12.5092 0 0 0
95 1 10.7549 7.91103 1.0389 0 0 0
96 1 11.6576 6.6463 15.0881 0 0 0
97 1 15.0266 4.51253 11.1691 0 0 0
98 1 7.38584 10.0448 4.95792 0 0 0
99 1 15.3036 11.2511 1.5261 0 0 0
100 1 7.10886 3.30627 14.6009 0 0 0
101 1 12.7014 4.27137 1.39321 0 0 0
102 1 9.71105 10.286 14.7338 0 0 0
103 1 15.2372 5.79433 11.6398 0 0 0
104 1 7.17528 8.763 4.48717 0 0 0
105 1 16.0168 3.54962 11.3797 0 0 0
106 1 6.39566 11.0077 4.7473 0 0 0
107 1 12.127 2.11418 13.1696 0 0 0
108 1 10.2854 12.4431 2.95736 0 0 0
109 1 15.9128 8.97963 15.2466 0 0 0
110 1 6.49965 5.5777 0.880372 0 0 0
111 1 14.4718 11.3727 8.82307 0 0 0
112 1 7.94071 3.18467 7.30391 0 0 0
113 1 11.8176 1.01392 11.0646 0 0 0
114 1 10.5949 13.5434 5.06242 0 0 0
115 1 12.5457 2.02761 10.4459 0 0 0
116 1 9.86672 12.5297 5.68105 0 0 0
117 1 16.0059 2.41986 7.49775 0 0 0
118 1 6.40661 12.1375 8.62922 0 0 0
119 1 4.59285 0.273037 3.04026 0 0 0
120 1 17.8196 14.2843 13.0867 0 0 0
121 1 13.5888 12.3157 8.33361 0 0 0
122 1 8.82362 2.24166 7.79336 0 0 0
123 1 17.3708 5.15499 12.5419 0 0 0
124 1 5.04166 9.40234 3.58503 0 0 0
125 1 11.9445 11.684 9.97211 0 0 0
126 1 10.468 2.87328 6.15486 0 0 0
127 1 11.6196 1.0581 12.4337 0 0 0
128 1 10.7929 13.4992 3.69324 0 0 0
129 1 14.3553 13.3698 15.983 0 0 0
130 1 8.05712 1.18749 0.144014 0 0 0
131 1 14.2907 10.3012 1.46191 0 0 0
132 1 8.12171 4.25616 14.6651 0 0 0
133 1 16.7636 13.3305 8.77178 0 0 0
134 1 5.64885 1.22686 7.35519 0 0 0
135 1 16.6394 10.1345 15.4646 0 0 0
136 1 5.77305 4.42283 0.662335 0 0 0
137 1 12.8121 10.7356 10.4693 0 0 0
138 1 9.60039 3.82177 5.65767 0 0 0
139 1 13.9437 4.22428 2.01297 0 0 0
140 1 8.46879 10.333 14.114 0 0 0
141 1 17.1714 3.86894 12.0591 0 0 0
142 1 5.24107 10.6884 4.06787 0 0 0
143 1 16.4056 6.1292 12.3289 0 0 0
144 1 6.00687 8.42813 3.79806 0 0 0
145 1 12.3134 12.4803 8.9216 0 0 0
146 1 10.099 2.07708 7.20537 0 0 0
147 1 13.6349 1.89945 2.48984 0 0 0
148 1 8.77758 12.6579 13.6371 0 0 0
149 1 14.0648 10.5879 9.9039 0 0 0
150 1 8.34763 3.96945 6.22308 0 0 0
151 1 3.71022 13.1296 1.79493 0 0 0
152 1 18.7022 1.4277 14.332 0 0 0
153 1 18.8413 6.64654 13.6983 0 0 0
154 1 3.57121 7.91079 2.42872 0 0 0
155 1 10.2317 4.19675 0.0275771 0 0 0
156 1 12.1808 10.3606 16.0994 0 0 0
157 1 13.0551 13.465 12.445 0 0 0
158 1 9.35734 1.09233 3.68195 0 0 0
159 1 9.76553 12.6305 10.0929 0 0 0
160 1 12.6469 1.9268 6.03407 0 0 0
161 1 14.7654 9.87317 13.373 0 0 0
162 1 7.64704 4.68416 2.754 0 0 0
163 1 18.5004 6.11376 23.2464 0 0 0
164 1 16.3075 8.56584 25.1345 0 0 0
165 1 17.1021 7.21519 21.337 0 0 0
166 1 17.7058 7.46441 27.044 0 0 0
167 1 19.874 6.09434 23.5147 0 0 0
168 1 14.9339 8.58527 24.8662 0 0 0
169 1 19.5028 7.27945 21.5005 0 0 0
170 1 15.3051 7.40016 26.8804 0 0 0
171 1 21.2597 9.08783 23.4451 0 0 0
172 1 13.5482 5.59178 24.9359 0 0 0
173 1 21.5984 7.87738 22.8689 0 0 0
174 1 13.2095 6.80222 25.5121 0 0 0
175 1 21.6043 5.84734 21.6853 0 0 0
176 1 13.2035 8.83226 26.6956 0 0 0
177 1 22.2763 9.97892 23.7939 0 0 0
178 1 12.5316 4.70068 24.587 0 0 0
179 1 20.3907 5.47264 24.6351 0 0 0
180 1 14.4172 9.20697 23.7458 0 0 0
181 1 9.16142 2.07896 18.8299 0 0 0
182 1 25.6465 12.6006 29.5511 0 0 0
183 1 21.2596 4.76213 20.9133 0 0 0
184 1 13.5483 9.91747 27.4676 0 0 0
185 1 20.6427 6.79358 22.3918 0 0 0
186 1 14.1652 7.88602 25.9891 0 0 0
187 1 22.9255 7.52773 22.6008 0 0 0
188 1 11.8824 7.15187 25.7801 0 0 0
189 1 23.5901 14.5726 24.5193 0 0 0
190 1 11.2178 0.106986 23.8616 0 0 0
191 1 23.6766 13.7775 22.253 0 0 0
192 1 11.1313 0.902141 26.128 0 0 0
193 1 17.6316 5.49147 24.1351 0 0 0
194 1 17.1763 9.18813 24.2458 0 0 0
195 1 22.9344 6.24699 21.8724 0 0 0
196 1 11.8734 8.43261 26.5086 0 0 0
197 1 18.4199 8.41416 19.6902 0 0 0
198 1 16.388 6.26544 28.6907 0 0 0
199 1 21.3944 0.272905 23.1951 0 0 0
200 1 13.4135 14.4067 25.1858 0 0 0
201 1 19.5903 11.1567 19.6602 0 0 0
202 1 15.2176 3.52288 28.7207 0 0 0
203 1 23.938 8.41163 22.9617 0 0 0
204 1 10.8699 6.26797 25.4192 0 0 0
205 1 8.60543 4.05015 20.2429 0 0 0
206 1 26.2025 10.6295 28.138 0 0 0
207 1 22.6725 12.4075 23.9619 0 0 0
208 1 12.1354 2.27208 24.419 0 0 0
209 1 19.5308 10.2714 18.5876 0 0 0
210 1 15.2771 4.40817 29.7933 0 0 0
211 1 23.6105 9.61709 23.5613 0 0 0
212 1 11.1974 5.06252 24.8196 0 0 0
213 1 9.94564 4.39778 20.4759 0 0 0
214 1 24.8623 10.2818 27.905 0 0 0
215 1 18.2694 6.85343 22.0033 0 0 0
216 1 16.5385 7.82618 26.3776 0 0 0
217 1 19.2499 3.15278 27.3031 0 0 0
218 1 15.558 11.5268 21.0778 0 0 0
219 1 21.5751 12.1605 18.7455 0 0 0
220 1 13.2328 2.51915 29.6354 0 0 0
221 1 18.1332 4.85832 25.2544 0 0 0
222 1 16.6747 9.82129 23.1266 0 0 0
223 1 9.93548 1.29173 19.6847 0 0 0
224 1 24.8724 13.3879 28.6962 0 0 0
225 1 10.2791 5.47723 21.2949 0 0 0
226 1 24.5288 9.20238 27.0861 0 0 0
227 1 10.106 0.902799 16.9333 0 0 0
228 1 24.7019 13.7768 31.4476 0 0 0
229 1 19.0309 3.18597 28.6783 0 0 0
230 1 15.777 11.4936 19.7026 0 0 0
231 1 19.5942 8.03585 20.3519 0 0 0
232 1 15.2137 6.64375 28.029 0 0 0
233 1 17.656 9.15276 17.4395 0 0 0
234 1 17.1519 5.52684 30.9414 0 0 0
235 1 9.26631 1.87692 17.462 0 0 0
236 1 25.5416 12.8027 30.919 0 0 0
237 1 19.5107 4.83788 25.5234 0 0 0
238 1 15.2972 9.84172 22.8576 0 0 0
239 1 10.8716 0.130645 17.7898 0 0 0
240 1 23.9363 14.549 30.5911 0 0 0
241 1 17.4922 10.2198 16.5605 0 0 0
242 1 17.3157 4.45978 31.8205 0 0 0
243 1 18.6173 1.98729 17.9751 0 0 0
244 1 16.1906 12.6923 30.4058 0 0 0
245 1 23.0365 12.6121 22.6353 0 0 0
246 1 11.7714 2.06749 25.7456 0 0 0
247 1 18.1405 3.17231 17.4266 0 0 0
248 1 16.6674 11.5073 30.9543 0 0 0
249 1 22.2801 7.95866 32.2254 0 0 0
250 1 12.5278 6.72094 16.1555 0 0 0
251 1 20.6184 3.10754 18.6952 0 0 0
252 1 14.1895 11.5721 29.6857 0 0 0
253 1 17.1806 8.00033 20.1963 0 0 0
254 1 17.6273 6.67928 28.1846 0 0 0
255 1 20.607 12.089 19.7447 0 0 0
256 1 14.2009 2.5906 28.6362 0 0 0
257 1 16.9526 7.97217 17.1659 0 0 0
258 1 17.8553 6.70744 31.215 0 0 0
259 1 21.2243 4.57367 27.296 0 0 0
260 1 13.5836 10.1059 21.0849 0 0 0
261 1 21.5013 11.3122 17.6531 0 0 0
262 1 13.3066 3.36741 30.7279 0 0 0
263 1 18.8991 4.3325 17.5202 0 0 0
264 1 15.9088 10.3471 30.8607 0 0 0
265 1 21.4349 5.85547 27.7668 0 0 0
266 1 13.373 8.82414 20.6141 0 0 0
267 1 22.2145 3.61076 27.5067 0 0 0
268 1 12.5934 11.0688 20.8743 0 0 0
269 1 18.3247 2.17532 29.2966 0 0 0
270 1 16.4832 12.5043 19.0843 0 0 0
271 1 22.1105 9.04076 31.3736 0 0 0
272 1 12.6974 5.63884 17.0073 0 0 0
273 1 20.6695 11.4338 24.95 0 0 0
274 1 14.1384 3.24581 23.4309 0 0 0
275 1 18.0153 1.07505 27.1915 0 0 0
276 1 16.7926 13.6046 21.1894 0 0 0
277 1 18.7435 2.08875 26.5729 0 0 0
278 1 16.0644 12.5909 21.808 0 0 0
279 1 22.2036 2.481 23.6247 0 0 0
280 1 12.6043 12.1986 24.7562 0 0 0
281 1 10.7906 0.334175 19.1672 0 0 0
282 1 24.0173 14.3454 29.2137 0 0 0
283 1 19.7866 12.3768 24.4606 0 0 0
284 1 15.0213 2.3028 23.9203 0 0 0
285 1 23.5685 5.21613 28.6689 0 0 0
286 1 11.2394 9.46348 19.712 0 0 0
287 1 18.1422 11.7452 26.0991 0 0 0
288 1 16.6657 2.93442 22.2818 0 0 0
289 1 17.8173 1.11924 28.5607 0 0 0
290 1 16.9906 13.5604 19.8202 0 0 0
291 1 20.5531 13.431 32.1099 0 0 0
292 1 14.2548 1.24863 16.271 0 0 0
293 1 20.4885 10.3623 17.5889 0 0 0
294 1 14.3194 4.31729 30.792 0 0 0
295 1 22.9613 13.3916 24.8988 0 0 0
296 1 11.8466 1.288 23.4822 0 0 0
297 1 22.8371 10.1956 31.5916 0 0 0
298 1 11.9708 4.48397 16.7893 0 0 0
299 1 19.0098 10.7967 26.5963 0 0 0
300 1 15.7981 3.88291 21.7846 0 0 0
301 1 20.1414 4.28542 18.1399 0 0 0
302 1 14.6665 10.3942 30.241 0 0 0
303 1 23.3691 3.93008 28.1861 0 0 0
304 1 11.4388 10.7495 20.1948 0 0 0
305 1 22.6033 6.19033 28.4559 0 0 0
306 1 12.2046 8.48927 19.925 0 0 0
307 1 18.5112 12.5414 25.0486 0 0 0
308 1 16.2967 2.13822 23.3323 0 0 0
309 1 19.8326 1.96059 18.6168 0 0 0
310 1 14.9753 12.719 29.7641 0 0 0
311 1 20.2625 10.649 26.0309 0 0 0
312 1 14.5454 4.03059 22.3501 0 0 0
313 1 9.90794 13.1908 17.9219 0 0 0
314 1 24.9 1.48884 30.459 0 0 0
315 1 25.039 6.70768 29.8252 0 0 0
316 1 9.76892 7.97193 18.5557 0 0 0
317 1 16.4294 4.25789 16.1546 0 0 0
318 1 18.3785 10.4217 32.2264 0 0 0
319 1 19.2528 13.5261 28.572 0 0 0
320 1 15.5551 1.15347 19.8089 0 0 0
321 1 15.9632 12.6917 26.2199 0 0 0
322 1 18.8446 1.98794 22.161 0 0 0
323 1 20.9631 9.93431 29.4999 0 0 0
324 1 13.8448 4.7453 18.881 0 0 0
325 1 24.6981 6.1749 39.3734 0 0 0
326 1 22.5052 8.62698 41.2615 0 0 0
327 1 23.2998 7.27633 37.4639 0 0 0
328 1 23.9035 7.52555 43.1709 0 0 0
329 1 26.0717 6.15547 39.6417 0 0 0
330 1 21.1316 8.6464 40.9932 0 0 0
331 1 25.7005 7.34059 37.6275 0 0 0
332 1 21.5028 7.46129 43.0074 0 0 0
333 1 27.4574 9.14896 39.572 0 0 0
334 1 19.7459 5.65292 41.0628 0 0 0
335 1 27.7961 7.93852 38.9958 0 0 0
336 1 19.4072 6.86336 41.639 0 0 0
337 1 27.8021 5.90848 37.8123 0 0 0
338 1 19.4013 8.8934 42.8226 0 0 0
339 1 28.474 10.0401 39.9209 0 0 0
340 1 18.7293 4.76182 40.714 0 0 0
341 1 26.5884 5.53378 40.7621 0 0 0
342 1 20.6149 9.2681 39.8728 0 0 0
343 1 15.3591 2.1401 34.9568 0 0 0
344 1 31.8442 12.6618 45.678 0 0 0
345 1 27.4573 4.82327 37.0403 0 0 0
346 1 19.746 9.97861 43.5946 0 0 0
347 1 26.8405 6.85472 38.5188 0 0 0
348 1 20.3629 7.94716 42.1161 0 0 0
349 1 29.1232 7.58887 38.7278 0 0 0
350 1 18.0801 7.21301 41.9071 0 0 0
351 1 29.7878 14.6338 40.6463 0 0 0
352 1 17.4155 0.168124 39.9886 0 0 0
353 1 29.8743 13.8386 38.3799 0 0 0
354 1 17.329 0.963279 42.2549 0 0 0
355 1 23.8293 5.55261 40.2621 0 0 0
356 1 23.374 9.24927 40.3728 0 0 0
357 1 29.1322 6.30813 37.9993 0 0 0
358 1 18.0712 8.49375 42.6355 0 0 0
359 1 24.6176 8.4753 35.8172 0 0 0
360 1 22.5857 6.32658 44.8177 0 0 0
361 1 27.5921 0.334043 39.3221 0 0 0
362 1 19.6112 14.4678 41.3128 0 0 0
363 1 25.788 11.2179 35.7872 0 0 0
364 1 21.4153 3.58402 44.8477 0 0 0
365 1 30.1357 8.47277 39.0887 0 0 0
366 1 17.0676 6.32911 41.5462 0 0 0
367 1 14.8031 4.11129 36.3699 0 0 0
368 1 32.4002 10.6906 44.265 0 0 0
369 1 28.8702 12.4687 40.0889 0 0 0
370 1 18.3331 2.33321 40.546 0 0 0
371 1 25.7285 10.3326 34.7146 0 0 0
372 1 21.4748 4.46931 45.9203 0 0 0
373 1 29.8083 9.67823 39.6883 0 0 0
374 1 17.3951 5.12365 40.9465 0 0 0
375 1 16.1434 4.45892 36.6029 0 0 0
376 1 31.06 10.343 44.032 0 0 0
377 1 24.4671 6.91456 38.1303 0 0 0
378 1 22.7362 7.88732 42.5046 0 0 0
379 1 25.4476 3.21392 43.4301 0 0 0
380 1 21.7557 11.588 37.2048 0 0 0
381 1 27.7728 12.2216 34.8725 0 0 0
382 1 19.4305 2.58029 45.7624 0 0 0
383 1 24.3309 4.91946 41.3813 0 0 0
384 1 22.8725 9.88242 39.2535 0 0 0
385 1 16.1332 1.35286 35.8117 0 0 0
386 1 31.0701 13.449 44.8232 0 0 0
387 1 16.4768 5.53836 37.4218 0 0 0
388 1 30.7265 9.26352 43.213 0 0 0
389 1 16.3037 0.963937 33.0603 0 0 0
390 1 30.8996 13.8379 47.5746 0 0 0
391 1 25.2286 3.24711 44.8053 0 0 0
392 1 21.9747 11.5548 35.8296 0 0 0
393 1 25.7919 8.09699 36.4789 0 0 0
394 1 21.4114 6.70489 44.156 0 0 0
395 1 23.8537 9.2139 33.5665 0 0 0
396 1 23.3496 5.58798 47.0683 0 0 0
397 1 15.464 1.93806 33.5889 0 0 0
398 1 31.7393 12.8638 47.0459 0 0 0
399 1 25.7084 4.89902 41.6503 0 0 0
400 1 21.4949 9.90286 38.9845 0 0 0
401 1 17.0693 0.191783 33.9168 0 0 0
402 1 30.134 14.6101 46.7181 0 0 0
403 1 23.6899 10.281 32.6874 0 0 0
404 1 23.5134 4.52092 47.9474 0 0 0
405 1 24.815 2.04843 34.1021 0 0 0
406 1 22.3883 12.7534 46.5328 0 0 0
407 1 29.2342 12.6733 38.7623 0 0 0
408 1 17.9691 2.12863 41.8726 0 0 0
409 1 24.3383 3.23345 33.5536 0 0 0
410 1 22.8651 11.5684 47.0813 0 0 0
411 1 28.4778 8.0198 48.3524 0 0 0
412 1 18.7255 6.78208 32.2825 0 0 0
413 1 26.8161 3.16867 34.8222 0 0 0
414 1 20.3872 11.6332 45.8127 0 0 0
415 1 23.3783 8.06147 36.3233 0 0 0
416 1 23.825 6.74041 44.3116 0 0 0
417 1 26.8047 12.1501 35.8717 0 0 0
418 1 20.3986 2.65174 44.7632 0 0 0
419 1 23.1503 8.03331 33.2928 0 0 0
420 1 24.053 6.76857 47.342 0 0 0
421 1 27.4221 4.63481 43.423 0 0 0
422 1 19.7813 10.1671 37.2119 0 0 0
423 1 27.699 11.3733 33.78 0 0 0
424 1 19.5043 3.42854 46.8548 0 0 0
425 1 25.0968 4.39364 33.6472 0 0 0
426 1 22.1065 10.4082 46.9877 0 0 0
427 1 27.6326 5.91661 43.8938 0 0 0
428 1 19.5707 8.88527 36.7411 0 0 0
429 1 28.4122 3.6719 43.6336 0 0 0
430 1 18.7911 11.13 37.0012 0 0 0
431 1 24.5224 2.23646 45.4236 0 0 0
432 1 22.6809 12.5654 35.2113 0 0 0
433 1 28.3082 9.1019 47.5006 0 0 0
434 1 18.8951 5.69998 33.1343 0 0 0
435 1 26.8672 11.4949 41.077 0 0 0
436 1 20.3361 3.30695 39.5579 0 0 0
437 1 24.213 1.13619 43.3185 0 0 0
438 1 22.9903 13.6657 37.3164 0 0 0
439 1 24.9412 2.14988 42.6999 0 0 0
440 1 22.2622 12.652 37.935 0 0 0
441 1 28.4013 2.54214 39.7517 0 0 0
442 1 18.802 12.2597 40.8832 0 0 0
443 1 16.9883 0.395313 35.2942 0 0 0
444 1 30.215 14.4066 45.3407 0 0 0
445 1 25.9843 12.4379 40.5876 0 0 0
446 1 21.219 2.36394 40.0473 0 0 0
447 1 29.7662 5.27727 44.7959 0 0 0
448 1 17.4371 9.52461 35.839 0 0 0
449 1 24.3399 11.8063 42.2261 0 0 0
450 1 22.8634 2.99556 38.4088 0 0 0
451 1 24.015 1.18038 44.6877 0 0 0
452 1 23.1883 13.6215 35.9472 0 0 0
453 1 26.7508 13.4921 48.2369 0 0 0
454 1 20.4526 1.30977 32.398 0 0 0
455 1 26.6862 10.4234 33.7159 0 0 0
456 1 20.5171 4.37843 46.919 0 0 0
457 1 29.159 13.4527 41.0257 0 0 0
458 1 18.0443 1.34914 39.6091 0 0 0
459 1 29.0348 10.2568 47.7186 0 0 0
460 1 18.1685 4.54511 32.9163 0 0 0
461 1 25.2075 10.8578 42.7233 0 0 0
462 1 21.9958 3.94405 37.9116 0 0 0
463 1 26.3391 4.34656 34.2669 0 0 0
464 1 20.8642 10.4553 46.368 0 0 0
465 1 29.5668 3.99122 44.3131 0 0 0
466 1 17.6365 10.8107 36.3218 0 0 0
467 1 28.801 6.25147 44.5829 0 0 0
468 1 18.4023 8.55041 36.052 0 0 0
469 1 24.7089 12.6025 41.1756 0 0 0
470 1 22.4944 2.19935 39.4593 0 0 0
471 1 26.0303 2.02173 34.7438 0 0 0
472 1 21.173 12.7802 45.8911 0 0 0
473 1 26.4603 10.7101 42.1578 0 0 0
474 1 20.7431 4.09173 38.477 0 0 0
475 1 16.1057 13.2519 34.0489 0 0 0
476 1 31.0977 1.54998 46.586 0 0 0
477 1 31.2367 6.76881 45.9522 0 0 0
478 1 15.9666 8.03307 34.6827 0 0 0
479 1 22.6271 4.31903 32.2815 0 0 0
480 1 24.5762 10.4829 48.3533 0 0 0
481 1 25.4505 13.5873 44.699 0 0 0
482 1 21.7528 1.21461 35.9359 0 0 0
483 1 22.161 12.7528 42.3469 0 0 0
484 1 25.0424 2.04908 38.288 0 0 0
485 1 27.1609 9.99545 45.6269 0 0 0
486 1 20.0425 4.80643 35.008 0 0 0
487 1 30.8958 6.23604 55.5003 0 0 0
488 1 28.703 8.68812 57.3885 0 0 0
489 1 29.4976 7.33746 53.5909 0 0 0
490 1 30.1012 7.58669 59.2979 0 0 0
491 1 32.2694 6.21661 55.7687 0 0 0
492 1 27.3293 8.70754 57.1201 0 0 0
493 1 31.8983 7.40172 53.7544 0 0 0
494 1 27.7005 7.52243 59.1344 0 0 0
495 1 33.6551 9.2101 55.699 0 0 0
496 1 25.9437 5.71405 57.1898 0 0 0
497 1 33.9938 7.99966 55.1228 0 0 0
498 1 25.6049 6.9245 57.766 0 0 0
499 1 33.9998 5.96962 53.9392 0 0 0
500 1 25.599 8.95454 58.9496 0 0 0
501 1 34.6717 10.1012 56.0478 0 0 0
502 1 24.927 4.82296 56.841 0 0 0
503 1 32.7861 5.59491 56.889 0 0 0
504 1 26.8126 9.32924 55.9998 0 0 0
505 1 21.5569 2.20124 51.0838 0 0 0
506 1 38.0419 12.7229 61.805 0 0 0
507 1 33.655 4.88441 53.1672 0 0 0
508 1 25.9438 10.0397 59.7216 0 0 0
509 1 33.0382 6.91586 54.6458 0 0 0
510 1 26.5606 8.0083 58.2431 0 0 0
511 1 35.321 7.65001 54.8548 0 0 0
512 1 24.2778 7.27415 58.034 0 0 0
513 1 35.9855 14.6949 56.7732 0 0 0
514 1 23.6132 0.229262 56.1156 0 0 0
515 1 36.0721 13.8997 54.5069 0 0 0
516 1 23.5267 1.02442 58.3819 0 0 0
517 1 30.027 5.61375 56.3891 0 0 0
518 1 29.5717 9.31041 56.4997 0 0 0
519 1 35.3299 6.36926 54.1263 0 0 0
520 1 24.2689 8.55489 58.7625 0 0 0
521 1 30.8154 8.53644 51.9442 0 0 0
522 1 28.7834 6.38772 60.9446 0 0 0
523 1 33.7898 0.395181 55.4491 0 0 0
524 1 25.809 14.529 57.4398 0 0 0
525 1 31.9857 11.279 51.9142 0 0 0
526 1 27.6131 3.64515 60.9746 0 0 0
527 1 36.3334 8.53391 55.2157 0 0 0
528 1 23.2653 6.39025 57.6731 0 0 0
529 1 21.0009 4.17242 52.4969 0 0 0
530 1 38.5979 10.7517 60.392 0 0 0
531 1 35.0679 12.5298 56.2159 0 0 0
532 1 24.5308 2.39435 56.6729 0 0 0
533 1 31.9262 10.3937 50.8416 0 0 0
534 1 27.6725 4.53044 62.0472 0 0 0
535 1 36.006 9.73936 55.8153 0 0 0
536 1 23.5928 5.18479 57.0735 0 0 0
537 1 22.3411 4.52006 52.7299 0 0 0
538 1 37.2577 10.4041 60.1589 0 0 0
539 1 30.6648 6.9757 54.2573 0 0 0
540 1 28.9339 7.94845 58.6316 0 0 0
541 1 31.6453 3.27506 59.5571 0 0 0
542 1 27.9534 11.6491 53.3317 0 0 0
543 1 33.9705 12.2827 50.9995 0 0 0
544 1 25.6282 2.64143 61.8894 0 0 0
545 1 30.5286 4.98059 57.5083 0 0 0
546 1 29.0702 9.94356 55.3805 0 0 0
547 1 22.3309 1.414 51.9387 0 0 0
548 1 37.2678 13.5102 60.9501 0 0 0
549 1 22.6746 5.5995 53.5488 0 0 0
550 1 36.9242 9.32465 59.34 0 0 0
551 1 22.5014 1.02508 49.1873 0 0 0
552 1 37.0973 13.8991 63.7015 0 0 0
553 1 31.4263 3.30825 60.9322 0 0 0
554 1 28.1725 11.6159 51.9566 0 0 0
555 1 31.9897 8.15813 52.6059 0 0 0
556 1 27.6091 6.76603 60.283 0 0 0
557 1 30.0515 9.27504 49.6935 0 0 0
558 1 29.5473 5.64912 63.1953 0 0 0
559 1 21.6617 1.99919 49.7159 0 0 0
560 1 37.937 12.925 63.1729 0 0 0
561 1 31.9061 4.96016 57.7773 0 0 0
562 1 27.6926 9.964 55.1115 0 0 0
563 1 23.267 0.252921 50.0438 0 0 0
564 1 36.3317 14.6712 62.845 0 0 0
565 1 29.8876 10.3421 48.8144 0 0 0
566 1 29.7111 4.58205 64.0744 0 0 0
567 1 31.0127 2.10957 50.2291 0 0 0
568 1 28.5861 12.8146 62.6597 0 0 0
569 1 35.4319 12.7344 54.8893 0 0 0
570 1 24.1669 2.18977 57.9995 0 0 0
571 1 30.536 3.29458 49.6806 0 0 0
572 1 29.0628 11.6296 63.2082 0 0 0
573 1 34.6756 8.08094 64.4794 0 0 0
574 1 24.9232 6.84322 48.4095 0 0 0
575 1 33.0139 3.22981 50.9491 0 0 0
576 1 26.5849 11.6943 61.9397 0 0 0
577 1 29.576 8.1226 52.4502 0 0 0
578 1 30.0228 6.80155 60.4386 0 0 0
579 1 33.0024 12.2113 51.9987 0 0 0
580 1 26.5963 2.71287 60.8901 0 0 0
581 1 29.348 8.09444 49.4198 0 0 0
582 1 30.2507 6.82971 63.469 0 0 0
583 1 33.6198 4.69595 59.55 0 0 0
584 1 25.979 10.2282 53.3388 0 0 0
585 1 33.8968 11.4345 49.907 0 0 0
586 1 25.702 3.48968 62.9818 0 0 0
587 1 31.2946 4.45478 49.7741 0 0 0
588 1 28.3042 10.4694 63.1147 0 0 0
589 1 33.8303 5.97774 60.0207 0 0 0
590 1 25.7684 8.94641 52.8681 0 0 0
591 1 34.61 3.73304 59.7606 0 0 0
592 1 24.9888 11.1911 53.1282 0 0 0
593 1 30.7202 2.2976 61.5505 0 0 0
594 1 28.8786 12.6266 51.3383 0 0 0
595 1 34.506 9.16304 63.6275 0 0 0
596 1 25.0928 5.76112 49.2613 0 0 0
597 1 33.0649 11.5561 57.204 0 0 0
598 1 26.5339 3.36808 55.6848 0 0 0
599 1 30.4108 1.19733 59.4455 0 0 0
600 1 29.188 13.7268 53.4433 0 0 0
601 1 31.1389 2.21102 58.8268 0 0 0
602 1 28.4599 12.7131 54.062 0 0 0
603 1 34.599 2.60327 55.8787 0 0 0
604 1 24.9998 12.3209 57.0101 0 0 0
605 1 23.186 0.456451 51.4212 0 0 0
606 1 36.4128 14.4677 61.4676 0 0 0
607 1 32.182 12.4991 56.7145 0 0 0
608 1 27.4168 2.42508 56.1743 0 0 0
609 1 35.964 5.3384 60.9229 0 0 0
610 1 23.6348 9.58575 51.966 0 0 0
611 1 30.5377 11.8675 58.353 0 0 0
612 1 29.0611 3.0567 54.5358 0 0 0
613 1 30.2127 1.24151 60.8147 0 0 0
614 1 29.3861 13.6826 52.0742 0 0 0
615 1 32.9485 13.5532 64.3639 0 0 0
616 1 26.6503 1.37091 48.5249 0 0 0
617 1 32.8839 10.4846 49.8428 0 0 0
618 1 26.7149 4.43957 63.046 0 0 0
619 1 35.3568 13.5139 57.1527 0 0 0
620 1 24.242 1.41028 55.7361 0 0 0
621 1 35.2326 10.3179 63.8456 0 0 0
622 1 24.3662 4.60625 49.0433 0 0 0
623 1 31.4052 10.919 58.8502 0 0 0
624 1 28.1935 4.00518 54.0386 0 0 0
625 1 32.5368 4.4077 50.3939 0 0 0
626 1 27.0619 10.5165 62.4949 0 0 0
627 1 35.7645 4.05236 60.44 0 0 0
628 1 23.8342 10.8718 52.4488 0 0 0
629 1 34.9987 6.31261 60.7098 0 0 0
630 1 24.6 8.61155 52.179 0 0 0
631 1 30.9066 12.6637 57.3025 0 0 0
632 1 28.6922 2.26049 55.5863 0 0 0
633 1 32.228 2.08287 50.8708 0 0 0
634 1 27.3707 12.8413 62.0181 0 0 0
635 1 32.658 10.7713 58.2848 0 0 0
636 1 26.9408 4.15287 54.604 0 0 0
637 1 22.3034 13.313 50.1759 0 0 0
638 1 37.2954 1.61112 62.713 0 0 0
639 1 37.4344 6.82995 62.0792 0 0 0
640 1 22.1644 8.0942 50.8096 0 0 0
641 1 28.8248 4.38017 48.4085 0 0 0
642 1 30.7739 10.544 64.4803 0 0 0
643 1 31.6483 13.6484 60.8259 0 0 0
644 1 27.9505 1.27574 52.0629 0 0 0
645 1 28.3587 12.8139 58.4738 0 0 0
646 1 31.2401 2.11022 54.415 0 0 0
647 1 33.3586 10.0566 61.7539 0 0 0
648 1 26.2402 4.86757 51.1349 0 0 0
649 1 14.8569 20.5488 7.11941 0 0 0
650 1 12.664 23.0009 9.00756 0 0 0
651 1 13.4586 21.6502 5.20998 0 0 0
652 1 14.0623 21.8995 10.917 0 0 0
653 1 16.2305 20.5294 7.38777 0 0 0
654 1 11.2904 23.0203 8.73921 0 0 0
655 1 15.8594 21.7145 5.37351 0 0 0
656 1 11.6616 21.8352 10.7535 0 0 0
657 1 17.6162 23.5229 7.3181 0 0 0
658 1 9.90475 20.0268 8.80888 0 0 0
659 1 17.9549 22.3124 6.74188 0 0 0
660 1 9.56604 21.2373 9.38509 0 0 0
661 1 17.9609 20.2824 5.55832 0 0 0
662 1 9.56008 23.2673 10.5687 0 0 0
663 1 18.6328 24.414 7.66692 0 0 0
664 1 8.88813 19.1357 8.46005 0 0 0
665 1 16.7472 19.9077 8.50811 0 0 0
666 1 10.7737 23.642 7.61887 0 0 0
667 1 5.51795 16.514 2.70288 0 0 0
668 1 22.003 27.0357 13.4241 0 0 0
669 1 17.6161 19.1972 4.78632 0 0 0
670 1 9.90485 24.3525 11.3406 0 0 0
671 1 16.9993 21.2286 6.26485 0 0 0
672 1 10.5217 22.3211 9.86213 0 0 0
673 1 19.2821 21.9628 6.47385 0 0 0
674 1 8.23889 21.5869 9.65312 0 0 0
675 1 19.9466 29.0077 8.39232 0 0 0
676 1 7.57435 14.542 7.73466 0 0 0
677 1 20.0332 28.2125 6.12599 0 0 0
678 1 7.48779 15.3372 10.001 0 0 0
679 1 13.9881 19.9265 8.00817 0 0 0
680 1 13.5328 23.6232 8.1188 0 0 0
681 1 19.291 20.682 5.7454 0 0 0
682 1 8.22997 22.8677 10.3816 0 0 0
683 1 14.7765 22.8492 3.56326 0 0 0
684 1 12.7445 20.7005 12.5637 0 0 0
685 1 17.7509 14.708 7.06813 0 0 0
686 1 9.77005 28.8418 9.05884 0 0 0
687 1 15.9468 25.5918 3.53326 0 0 0
688 1 11.5742 17.9579 12.5937 0 0 0
689 1 20.2945 22.8467 6.83477 0 0 0
690 1 7.22641 20.703 9.2922 0 0 0
691 1 4.96196 18.4852 4.11593 0 0 0
692 1 22.559 25.0645 12.011 0 0 0
693 1 19.029 26.8426 7.83497 0 0 0
694 1 8.49191 16.7071 8.29201 0 0 0
695 1 15.8873 24.7065 2.46065 0 0 0
696 1 11.6336 18.8432 13.6663 0 0 0
697 1 19.9671 24.0521 7.43437 0 0 0
698 1 7.55388 19.4976 8.6926 0 0 0
699 1 6.30217 18.8328 4.34896 0 0 0
700 1 21.2188 24.7169 11.778 0 0 0
701 1 14.6259 21.2885 5.87635 0 0 0
702 1 12.895 22.2612 10.2506 0 0 0
703 1 15.6064 17.5878 11.1762 0 0 0
704 1 11.9145 25.9619 4.95082 0 0 0
705 1 17.9316 26.5955 2.61854 0 0 0
706 1 9.58932 16.9542 13.5084 0 0 0
707 1 14.4897 19.2934 9.12738 0 0 0
708 1 13.0313 24.2563 6.99959 0 0 0
709 1 6.29201 15.7268 3.55777 0 0 0
710 1 21.2289 27.8229 12.5692 0 0 0
711 1 6.63565 19.9123 5.16789 0 0 0
712 1 20.8853 23.6374 10.9591 0 0 0
713 1 6.46253 15.3379 0.806349 0 0 0
714 1 21.0584 28.2119 15.3206 0 0 0
715 1 15.3874 17.621 12.5513 0 0 0
716 1 12.1336 25.9287 3.57567 0 0 0
717 1 15.9508 22.4709 4.22494 0 0 0
718 1 11.5702 21.0788 11.902 0 0 0
719 1 14.0125 23.5878 1.31257 0 0 0
720 1 13.5084 19.9619 14.8144 0 0 0
721 1 5.62284 16.312 1.33499 0 0 0
722 1 21.8981 27.2377 14.792 0 0 0
723 1 15.8672 19.2729 9.39638 0 0 0
724 1 11.6537 24.2768 6.73059 0 0 0
725 1 7.22813 14.5657 1.66285 0 0 0
726 1 20.2928 28.984 14.4641 0 0 0
727 1 13.8487 24.6549 0.433493 0 0 0
728 1 13.6722 18.8948 15.6935 0 0 0
729 1 14.9738 16.4223 1.84815 0 0 0
730 1 12.5472 27.1274 14.2788 0 0 0
731 1 19.393 27.0472 6.50836 0 0 0
732 1 8.12796 16.5025 9.61861 0 0 0
733 1 14.4971 17.6074 1.29967 0 0 0
734 1 13.0239 25.9423 14.8273 0 0 0
735 1 18.6367 22.3937 16.0984 0 0 0
736 1 8.8843 21.156 0.0285447 0 0 0
737 1 16.9749 17.5426 2.56822 0 0 0
738 1 10.546 26.0071 13.5588 0 0 0
739 1 13.5371 22.4354 4.06932 0 0 0
740 1 13.9838 21.1143 12.0577 0 0 0
741 1 16.9635 26.5241 3.61776 0 0 0
742 1 10.5574 17.0257 12.5092 0 0 0
743 1 13.3091 22.4072 1.0389 0 0 0
744 1 14.2118 21.1425 15.0881 0 0 0
745 1 17.5809 19.0087 11.1691 0 0 0
746 1 9.94008 24.541 4.95792 0 0 0
747 1 17.8578 25.7472 1.5261 0 0 0
748 1 9.6631 17.8025 14.6009 0 0 0
749 1 15.2557 18.7676 1.39321 0 0 0
750 1 12.2653 24.7822 14.7338 0 0 0
751 1 17.7914 20.2905 11.6398 0 0 0
752 1 9.72952 23.2592 4.48717 0 0 0
753 1 18.571 18.0458 11.3797 0 0 0
754 1 8.9499 25.5039 4.7473 0 0 0
755 1 14.6813 16.6104 13.1696 0 0 0
756 1 12.8397 26.9393 2.95736 0 0 0
757 1 18.4671 23.4758 15.2466 0 0 0
758 1 9.05389 20.0739 0.880372 0 0 0
759 1 17.026 25.8688 8.82307 0 0 0
760 1 10.4949 17.6809 7.30391 0 0 0
761 1 14.3719 15.5101 11.0646 0 0 0
762 1 13.1491 28.0396 5.06242 0 0 0
763 1 15.1 16.5238 10.4459 0 0 0
764 1 12.421 27.0259 5.68105 0 0 0
765 1 18.5601 16.9161 7.49775 0 0 0
766 1 8.96085 26.6337 8.62922 0 0 0
767 1 7.14709 14.7692 3.04026 0 0 0
768 1 20.3739 28.7805 13.0867 0 0 0
769 1 16.1431 26.8119 8.33361 0 0 0
770 1 11.3779 16.7379 7.79336 0 0 0
771 1 19.925 19.6512 12.5419 0 0 0
772 1 7.5959 23.8985 3.58503 0 0 0
773 1 14.4988 26.1802 9.97211 0 0 0
774 1 13.0222 17.3695 6.15486 0 0 0
775 1 14.1738 15.5543 12.4337 0 0 0
776 1 13.3471 27.9954 3.69324 0 0 0
777 1 16.9096 27.866 15.983 0 0 0
778 1 10.6114 15.6837 0.144014 0 0 0
779 1 16.845 24.7974 1.46191 0 0 0
780 1 10.676 18.7523 14.6651 0 0 0
781 1 19.3179 27.8267 8.77178 0 0 0
782 1 8.20309 15.7231 7.35519 0 0 0
783 1 19.1936 24.6307 15.4646 0 0 0
784 1 8.3273 18.919 0.662335 0 0 0
785 1 15.3663 25.2317 10.4693 0 0 0
786 1 12.1546 18.318 5.65767 0 0 0
787 1 16.4979 18.7205 2.01297 0 0 0
788 1 11.023 24.8292 14.114 0 0 0
789 1 19.7256 18.3651 12.0591 0 0 0
790 1 7.79532 25.1846 4.06787 0 0 0
791 1 18.9598 20.6254 12.3289 0 0 0
792 1 8.56111 22.9243 3.79806 0 0 0
793 1 14.8677 26.9764 8.9216 0 0 0
794 1 12.6533 16.5733 7.20537 0 0 0
795 1 16.1891 16.3956 2.48984 0 0 0
796 1 11.3318 27.1541 13.6371 0 0 0
797 1 16.6191 25.0841 9.9039 0 0 0
798 1 10.9019 18.4656 6.22308 0 0 0
799 1 6.26446 27.6258 1.79493 0 0 0
800 1 21.2565 15.9239 14.332 0 0 0
801 1 21.3955 21.1427 13.6983 0 0 0
802 1 6.12545 22.407 2.42872 0 0 0
803 1 12.7859 18.6929 0.0275771 0 0 0
804 1 14.735 24.8568 16.0994 0 0 0
805 1 15.6094 27.9612 12.445 0 0 0
806 1 11.9116 15.5885 3.68195 0 0 0
807 1 12.3198 27.1267 10.0929 0 0 0
808 1 15.2012 16.423 6.03407 0 0 0
809 1 17.3197 24.3694 13.373 0 0 0
810 1 10.2013 19.1803 2.754 0 0 0
811 1 21.0546 20.6099 23.2464 0 0 0
812 1 18.8618 23.062 25.1345 0 0 0
813 1 19.6564 21.7114 21.337 0 0 0
814 1 20.26 21.9606 27.044 0 0 0
815 1 22.4283 20.5905 23.5147 0 0 0
816 1 17.4881 23.0815 24.8662 0 0 0
817 1 22.0571 21.7756 21.5005 0 0 0
818 1 17.8593 21.8963 26.8804 0 0 0
819 1 23.8139 23.584 23.4451 0 0 0
820 1 16.1025 20.088 24.9359 0 0 0
821 1 24.1526 22.3736 22.8689 0 0 0
822 1 15.7638 21.2984 25.5121 0 0 0
823 1 24.1586 20.3435 21.6853 0 0 0
824 1 15.7578 23.3284 26.6956 0 0 0
825 1 24.8305 24.4751 23.7939 0 0 0
826 1 15.0858 19.1969 24.587 0 0 0
827 1 22.945 19.9688 24.6351 0 0 0
828 1 16.9714 23.7032 23.7458 0 0 0
829 1 11.7157 16.5752 18.8299 0 0 0
830 1 28.2007 27.0968 29.5511 0 0 0
831 1 23.8138 19.2583 20.9133 0 0 0
832 1 16.1026 24.4137 27.4676 0 0 0
833 1 23.197 21.2898 22.3918 0 0 0
834 1 16.7194 22.3822 25.9891 0 0 0