(written by ASE)

20608 atoms
4 atom types

0.0      54.642000000000003  xlo xhi
0.0      57.984759553363759  ylo yhi
0.0      64.507898310836396  zlo zhi
     10.216973306150429      24.790863516896568      0.2445518460334509  xy xz yz

Atoms # atomic

     1   1      12.302656669999999      6.0526212199999998      7.1194141999999996
     2   1             10.10980254      8.5047066299999994      9.0075603799999993
     3   1             10.90440377      7.1540510800000003              5.20998041
     4   1             11.50805544      7.4032767699999997      10.916994170000001
     5   1             13.67630001      6.0331989200000002      7.3877670499999999
     6   1      8.7361591900000004      8.5241289299999998      8.7392075200000008
     7   1              13.3051181      7.2183092999999996      5.3735079299999997
     8   1      9.1073411100000001      7.3390185499999996             10.75346665
     9   1              15.0619554      9.0266879400000004      7.3180985200000004
    10   1      7.3505038000000003      5.5306399099999997      8.8088760500000003
    11   1             15.40066253      7.8162460600000001      6.7418817200000003
    12   1      7.0117966799999998              6.74108179      9.3850928600000003
    13   1      15.406625269999999      5.7862065300000003      5.5583230600000002
    14   1      7.0058339299999997      8.7711213200000007             10.56865152
    15   1      16.078573819999999      9.9177864899999992      7.6669249800000001
    16   1      6.3338853899999998      4.6395413599999999      8.4600495900000006
    17   1              14.1930011      5.4115007000000004      8.5081079800000001
    18   1      8.2194581099999997      9.1458271500000006      7.6188665999999996
    19   1      2.9637050500000002      2.0178240600000001              2.70288094
    20   1             19.44875416      12.539503789999999      13.424093640000001
    21   1             15.06185642      4.7009943200000004      4.7863247800000002
    22   1              7.35060278      9.8563335300000006      11.340649790000001
    23   1      14.445021280000001      6.7324419799999999      6.2648458099999997
    24   1      7.9674379200000001      7.8248858700000001      9.8621287599999992
    25   1      16.727816929999999              7.46659658               6.4738514
    26   1      5.6846422700000003              7.09073127      9.6531231700000006
    27   1      17.392357220000001             14.51147982      8.3923162999999992
    28   1      5.0201019899999997    0.045848029999999998      7.7346582799999997
    29   1             17.47891748             13.71632483      6.1259925600000003
    30   1              4.93354173     0.84100302000000005             10.00098201
    31   1             11.43389159      5.4303349699999997      8.0081717700000006
    32   1             10.97856762      9.1269928799999995              8.11880281
    33   1      16.736728630000002      6.1858508700000003      5.7453959599999997
    34   1      5.6757305699999998      8.3714769800000006             10.38157861
    35   1      12.222213419999999      8.3530215099999996      3.5632550300000001
    36   1      10.190245790000001      6.2043063399999996      12.563719539999999
    37   1             15.19664787     0.21176692999999999      7.0681304200000001
    38   1      7.2158113400000001             14.34556092      9.0588441599999996
    39   1      13.392546469999999      11.095586920000001      3.5332588600000001
    40   1      9.0199127299999997      3.4617409299999999      12.593715720000001
    41   1             17.74029324      8.3504928799999991      6.8347730999999996
    42   1              4.67216597      6.2068349700000001      9.2922014799999992
    43   1      2.4077123500000002      3.9890092799999999      4.1159264499999999
    44   1      20.004746860000001      10.568318570000001      12.011048130000001
    45   1             16.47479431             12.34639039      7.8349680599999996
    46   1      5.9376648899999998      2.2109374599999998      8.2920065199999993
    47   1      13.333097929999999             10.21029725      2.4606537799999999
    48   1      9.0793612699999997      4.3470306000000001      13.666320799999999
    49   1             17.41282073      9.5559497499999999              7.43437401
    50   1      4.9996384699999998      5.0013780900000002      8.6926005699999997
    51   1      3.7479231799999999      4.3366415800000002      4.3489612299999996
    52   1             18.66453602             10.22068627      11.778013339999999
    53   1             12.07166496      6.7922880499999998                5.876347
    54   1             10.34079425      7.7650398000000003             10.25062758
    55   1             13.05216023              3.09164276      11.176154650000001
    56   1      9.3602989799999996      11.465685089999999      4.9508199299999998
    57   1      15.377386270000001             12.09931445      2.6185368599999999
    58   1      7.0350729300000001               2.4580134             13.50843772
    59   1      11.935436709999999      4.7971804799999997      9.1273838000000005
    60   1             10.47702249      9.7601473700000003      6.9995907800000001
    61   1      3.7377690800000001              1.23058775      3.5577718599999999
    62   1      18.674690120000001              13.3267401             12.56920272
    63   1      4.0814029100000004      5.4160882700000004      5.1678889999999997
    64   1              18.3310563      9.1412395800000006      10.959085569999999
    65   1      3.9082910700000002     0.84166147999999996     0.80634872999999996
    66   1      18.504168140000001      13.715666369999999      15.320625850000001
    67   1      12.833148810000001      3.1248336399999999             12.55130177
    68   1      9.5793104000000007             11.43249421               3.5756728
    69   1             13.39651346      7.9747151000000001      4.2249448000000003
    70   1      9.0159457500000002              6.58261275      11.902029779999999
    71   1      11.458306370000001      9.0916227299999992              1.31257446
    72   1      10.954152840000001              5.46570512             14.81440012
    73   1      3.0685945100000001      1.8157800799999999      1.3349909600000001
    74   1             19.34386469             12.74154777             14.79198362
    75   1      13.312974110000001      4.7767458999999999      9.3963817400000007
    76   1      9.0994851000000008      9.7805819500000002      6.7305928399999999
    77   1      4.6738832600000002    0.069507319999999997      1.6628523500000001
    78   1      17.738575950000001             14.48782053      14.464122229999999
    79   1      11.294457469999999             10.15868876     0.43349307999999992
    80   1             11.11800174      4.3986390899999996      15.693481500000001
    81   1             12.41955132              1.92615699      1.8481512899999999
    82   1      9.9929078899999997      12.631170859999999             14.27882329
    83   1      16.838746789999998      12.550976090000001      6.5083631300000002
    84   1      5.5737124099999997      2.0063517599999998      9.6186114499999995
    85   1      11.942821800000001      3.1111706799999999      1.2996728799999999
    86   1      10.469637410000001      11.446157169999999              14.8273017
    87   1      16.082407180000001      7.8975250399999997      16.098429830000001
    88   1      6.3300520200000001      6.6598028100000004    0.028544749999999969
    89   1      14.420703059999999      3.0463980799999999      2.5682206999999999
    90   1      7.9917561399999997      11.510929770000001      13.558753879999999
    91   1             10.98285624      7.9391892999999998      4.0693194999999998
    92   1             11.42960296      6.6181385500000003             12.05765508
    93   1             14.40927462      12.027867329999999      3.6177642099999998
    94   1      8.0031845799999992      2.5294605200000002             12.50921037
    95   1             10.75487526      7.9110302399999997               1.0388997
    96   1             11.65758394      6.6462976100000004      15.088074880000001
    97   1      15.026623969999999      4.5125323899999996             11.16905878
    98   1      7.3858352399999996             10.04479546      4.9579157900000004
    99   1      15.303602720000001      11.251059830000001      1.5260956000000001
   100   1              7.10885648      3.3062680200000001             14.60087897
   101   1             12.70141293      4.2713654300000004      1.3932093299999999
   102   1      9.7110462799999997      10.285962420000001             14.73376524
   103   1             15.23718341      5.7943305799999996      11.639805170000001
   104   1      7.1752757999999996      8.7629972699999996      4.4871694099999999
   105   1      16.016802930000001      3.5496241500000001             11.37967707
   106   1      6.3956562699999999              11.0077037      4.7472975100000001
   107   1      12.127017499999999      2.1141839199999999      13.169609980000001
   108   1              10.2854417             12.44314393               2.9573646
   109   1              15.9128118      8.9796254700000002             15.24660304
   110   1      6.4996473999999997      5.5777023799999998     0.88037153999999995
   111   1             14.47175363      11.372658230000001      8.8230677899999996
   112   1      7.9407055800000004      3.1846696200000002      7.3039067900000001
   113   1             11.81760834              1.01391568      11.064555990000001
   114   1      10.594850859999999             13.54341217      5.0624185900000001
   115   1             12.54573568      2.0276083699999998      10.445925239999999
   116   1      9.8667235299999998      12.529719480000001      5.6810493299999996
   117   1      16.005851140000001              2.41986071      7.4977530200000002
   118   1      6.4066080599999999             12.13746714      8.6292215599999995
   119   1               4.5928502     0.27303698999999998      3.0402572499999998
   120   1               17.819609             14.28429086      13.086717330000001
   121   1      13.588844010000001             12.31566435      8.3336141099999992
   122   1      8.8236152000000008               2.2416635      7.7933604599999997
   123   1      17.370804039999999      5.1549895799999996             12.54194813
   124   1      5.0416551700000003      9.4023382699999996              3.58502645
   125   1             11.94450771             11.68404361      9.9721147299999995
   126   1      10.467951490000001      2.8732842399999998      6.1548598500000002
   127   1             11.61955538      1.0581010399999999             12.43373613
   128   1             10.79290383             13.49922681              3.69323845
   129   1             14.35533993             13.36983386      15.982960690000001
   130   1      8.0571192699999994      1.1874939900000001     0.14401388000000001
   131   1             14.29074789      10.301171099999999      1.4619102500000001
   132   1      8.1217113199999993      4.2561567499999997             14.66506433
   133   1      16.763612120000001             13.33046418      8.7717840099999993
   134   1      5.6488470900000003              1.22686367      7.3551905700000004
   135   1      16.639406520000001      10.134493730000001             15.46463973
   136   1      5.7730526900000001      4.4228341200000001     0.66233485000000003
   137   1             12.81207279             10.73555829             10.46930936
   138   1      9.6003864199999995      3.8217695599999999      5.6576652200000002
   139   1             13.94367065              4.22428296      2.0129689700000002
   140   1      8.4687885600000001             10.33304489             14.11400561
   141   1             17.17138478      3.8689416400000001      12.059106509999999
   142   1      5.2410744200000003      10.688386210000001      4.0678680700000003
   143   1      16.405593589999999      6.1291956799999996             12.32891079
   144   1      6.0068656100000002      8.4281321699999996      3.7980637800000001
   145   1             12.31344425             12.48025077              8.92160361
   146   1      10.099014950000001              2.07707708      7.2053709699999997
   147   1             13.63488145      1.8994523299999999      2.4898436099999999
   148   1      8.7775777599999998      12.657875519999999      13.637130969999999
   149   1             14.06482441      10.587873050000001      9.9038976299999995
   150   1      8.3476347900000007      3.9694547999999998      6.2230769500000003
   151   1      3.7102204099999998             13.12962551      1.7949322700000001
   152   1      18.702238789999999              1.42770234             14.33204231
   153   1      18.841251849999999      6.6465372900000004             13.69825221
   154   1      3.5712073499999999      7.9107905599999997              2.42872237
   155   1      10.231667979999999      4.1967515200000003    0.027577129999999977
   156   1             12.18079122      10.360576330000001      16.099397450000001
   157   1             13.05511478             13.46499788             12.44502501
   158   1      9.3573444200000004              1.09232997              3.68194957
   159   1      9.7655283700000002             12.63052289             10.09290577
   160   1             12.64693084      1.9268049599999999      6.0340688099999999
   161   1      14.765420860000001      9.8731707400000008             13.37297113
   162   1      7.6470383499999999      4.6841571100000001      2.7540034499999999
   163   1      18.500372550000002      6.1137591799999997      23.246388769999999
   164   1             16.30751841      8.5658446000000001             25.13453496
   165   1      17.102119649999999      7.2151890400000003      21.336954980000002
   166   1      17.705771309999999      7.4644147299999997      27.043968750000001
   167   1      19.874015889999999      6.0943368800000002             23.51474163
   168   1      14.933875069999999      8.5852668899999998              24.8661821
   169   1      19.502833979999998      7.2794472600000004      21.500482510000001
   170   1      15.305056990000001      7.4001565200000003      26.880441229999999
   171   1      21.259671279999999      9.0878259000000003      23.445073099999998
   172   1      13.548219680000001      5.5917778699999996      24.935850630000001
   173   1      21.598378409999999              7.87738402      22.868856300000001
   174   1             13.20951256      6.8022197499999999      25.512067429999998
   175   1             21.60434115      5.8473444900000002      21.685297640000002
   176   1             13.20354981      8.8322592800000006      26.695626099999998
   177   1              22.2762897      9.9789244499999992             23.79389956
   178   1      12.531601269999999      4.7006793199999999      24.587024169999999
   179   1      20.390716980000001      5.4726386600000003      24.635082560000001
   180   1      14.417173979999999      9.2069651100000005      23.745841179999999
   181   1      9.1614209300000002      2.0789620200000001      18.829855519999999
   182   1      25.646470040000001      12.600641749999999      29.551068220000001
   183   1      21.259572299999999      4.7621322800000003             20.91329936
   184   1             13.54831866      9.9174714900000005      27.467624369999999
   185   1      20.642737159999999      6.7935799399999999      22.391820389999999
   186   1      14.165153800000001      7.8860238300000001             25.98910334
   187   1             22.92553281              7.52773454             22.60082598
   188   1             11.88235815              7.15186923      25.780097749999999
   189   1      23.590073090000001             14.57261778             24.51929088
   190   1      11.217817869999999                0.106986      23.861632849999999
   191   1             23.67663336              13.7774628      22.252967139999999
   192   1              11.1312576     0.90214097999999998             26.12795659
   193   1      17.631607460000001      5.4914729299999996      24.135146339999999
   194   1              17.1762835      9.1881308399999995      24.245777390000001
   195   1      22.934444509999999      6.2469888400000002      21.872370539999999
   196   1      11.873446449999999      8.4326149400000006      26.508553190000001
   197   1              18.4199293      8.4141594699999995      19.690229609999999
   198   1      16.387961669999999      6.2654443000000004             28.69069412
   199   1             21.39436375     0.27290489000000001      23.195105000000002
   200   1             13.41352721             14.40669888      25.185818739999998
   201   1             19.59026235             11.15672489      19.660233439999999
   202   1             15.21762861      3.5228788899999999      28.720690300000001
   203   1             23.93800912      8.4116308499999999      22.961747670000001
   204   1      10.869881850000001              6.26797293      25.419176060000002
   205   1      8.6054282299999993      4.0501472400000003      20.242901029999999
   206   1      26.202462740000001      10.629456530000001              28.1380227
   207   1      22.672510190000001      12.407528360000001             23.96194264
   208   1      12.135380769999999      2.2720754200000002              24.4189811
   209   1      19.530813810000001      10.271435220000001             18.58762836
   210   1             15.27707715              4.40816856      29.793295369999999
   211   1             23.61053661      9.6170877200000007      23.561348590000001
   212   1      11.197354349999999      5.0625160600000001      24.819575140000001
   213   1      9.9456390599999995      4.3977795500000001      20.475935809999999
   214   1              24.8622519             10.28182423             27.90498792
   215   1      18.269380829999999      6.8534260099999997      22.003321570000001
   216   1      16.538510129999999      7.8261777600000002      26.377602159999999
   217   1      19.249876100000002              3.15278072             27.30312923
   218   1             15.55801486      11.526823050000001              21.0777945
   219   1      21.575102149999999             12.16045241      18.745511440000001
   220   1      13.232788810000001              2.51915136      29.635412290000001
   221   1      18.133152590000002      4.8583184399999997      25.254358379999999
   222   1             16.67473837      9.8212853300000003             23.12656535
   223   1      9.9354849600000001      1.2917257099999999      19.684746440000001
   224   1      24.872406000000002             13.38787806      28.696177290000001
   225   1             10.27911879      5.4772262300000003      21.294863580000001
   226   1      24.528772180000001      9.2023775400000005      27.086060150000002
   227   1      10.106006949999999     0.90279944000000001      16.933323309999999
   228   1      24.701884010000001      13.776804329999999      31.447600430000001
   229   1      19.030864690000001      3.1859715999999998      28.678276350000001
   230   1      15.777026279999999             11.49363217      19.702647379999998
   231   1      19.594229339999998      8.0358530600000009      20.351919379999998
   232   1      15.213661630000001      6.6437507199999999      28.029004359999998
   233   1      17.656022249999999      9.1527606899999991      17.439549039999999
   234   1             17.15186872      5.5268430799999999             30.94137469
   235   1      9.2663103899999992      1.8769180400000001      17.461965530000001
   236   1      25.541580570000001             12.80268573      30.918958199999999
   237   1      19.510689989999999      4.8378838599999998      25.523356320000001
   238   1             15.29720098      9.8417199100000001      22.857567419999999
   239   1      10.871599140000001              0.13064528             17.78982693
   240   1      23.936291820000001             14.54895849             30.59109681
   241   1      17.492173350000002             10.21982672             16.56046765
   242   1      17.315717620000001      4.4597770499999996             31.82045608
   243   1      18.617267200000001      1.9872949499999999      17.975125859999999
   244   1      16.190623769999998      12.692308819999999      30.405797870000001
   245   1      23.036462669999999      12.612114050000001      22.635337710000002
   246   1      11.771428289999999      2.0674897200000002      25.745586029999998
   247   1      18.140537680000001      3.1723086399999998      17.426647460000002
   248   1      16.667353290000001      11.507295129999999      30.954276270000001
   249   1      22.280123060000001      7.9586629999999996      32.225404410000003
   250   1      12.527767900000001      6.7209407700000003             16.15551932
   251   1      20.618418940000002      3.1075360399999998             18.69519528
   252   1             14.18947202      11.572067730000001      29.685728449999999
   253   1      17.180572120000001      8.0003272600000006             20.19629407
   254   1      17.627318840000001      6.6792765100000002      28.184629659999999
   255   1      20.606990499999998              12.0890053      19.744738779999999
   256   1             14.20090046      2.5905984800000001      28.636184950000001
   257   1      16.952591139999999      7.9721682100000004      17.165874280000001
   258   1      17.855299819999999      6.7074355700000003      31.215049449999999
   259   1             21.22433985      4.5736703600000004      27.296033359999999
   260   1      13.583551119999999             10.10593342             21.08489037
   261   1      21.501318600000001      11.312197790000001             17.65307018
   262   1      13.306572360000001              3.36740598      30.727853549999999
   263   1      18.899128810000001      4.3325033900000003             17.52018391
   264   1             15.90876216      10.347100380000001      30.860739819999999
   265   1      21.434899290000001      5.8554685400000004      27.766779750000001
   266   1             13.37299168      8.8241352299999996      20.614143980000001
   267   1      22.214518810000001              3.61076211      27.506651649999998
   268   1             12.59337215             11.06884166      20.874272080000001
   269   1      18.324733380000001      2.1753218799999998      29.296584559999999
   270   1             16.48315758             12.50428189      19.084339180000001
   271   1      22.110527680000001      9.0407634300000002      31.373577610000002
   272   1      12.697363279999999      5.6388403399999998      17.007346120000001
   273   1      20.669469509999999      11.433796190000001      24.950042369999998
   274   1             14.13842146      3.2458075800000001      23.430881360000001
   275   1             18.01532422      1.0750536399999999      27.191530570000001
   276   1      16.792566740000002      13.604550140000001      21.189393169999999
   277   1             18.74345156      2.0887463300000002             26.57289982
   278   1      16.064439409999999      12.590857440000001      21.808023909999999
   279   1      22.203567020000001              2.48099867              23.6247276
   280   1             12.60432394              12.1986051      24.756196129999999
   281   1             10.79056608     0.33417496000000002      19.167231829999999
   282   1             24.01732488             14.34542882      29.213691910000001
   283   1      19.786559879999999             12.37680231      24.460588690000002
   284   1             15.02133108              2.30280146      23.920335040000001
   285   1      23.568519909999999      5.2161275399999996             28.66892271
   286   1      11.239371050000001      9.4634762400000003             19.71200103
   287   1             18.14222359      11.745181580000001             26.09908931
   288   1      16.665667370000001      2.9344222000000002             22.28183443
   289   1      17.817271250000001      1.1192390000000001      28.560710709999999
   290   1      16.990619710000001             13.56036477      19.820213030000001
   291   1             20.55305581             13.43097182      32.109935270000001
   292   1             14.25483515              1.24863195      16.270988460000002
   293   1      20.488463769999999      10.362309059999999      17.588884820000001
   294   1              14.3194272      4.3172947099999996      30.792038909999999
   295   1      22.961328000000002             13.39160214             24.89875859
   296   1      11.846562970000001      1.2880016299999999      23.482165139999999
   297   1      22.837122399999998      10.195631690000001      31.591614310000001
   298   1      11.970768570000001              4.48397208      16.789309419999999
   299   1      19.009788669999999             10.79669625      26.596283929999998
   300   1      15.798102289999999      3.8829075199999998      21.784639800000001
   301   1      20.141386529999998              4.28542092      18.139943540000001
   302   1      14.666504440000001      10.394182860000001      30.240980189999998
   303   1      23.369100660000001               3.9300796      28.186081089999998
   304   1      11.438790300000001      10.749524170000001      20.194842649999998
   305   1      22.603309469999999      6.1903336400000004      28.455885370000001
   306   1      12.204581490000001      8.4892701400000004      19.925038359999999
   307   1             18.51116013             12.54138873             25.04857818
   308   1      16.296730830000001              2.13821504      23.332345549999999
   309   1      19.832597329999999      1.9605902900000001      18.616818179999999
   310   1             14.97529364      12.719013479999999             29.76410555
   311   1             20.26254029      10.649011010000001      26.030872209999998
   312   1      14.545350669999999      4.0305927700000002      22.350051530000002
   313   1      9.9079362900000003             13.19076347      17.921906849999999
   314   1             24.89995467      1.4888402999999999             30.45901688
   315   1             25.03896773      6.7076752500000003      29.825226780000001
   316   1      9.7689232300000004      7.9719285199999996      18.555696950000002
   317   1      16.429383860000002      4.2578894800000002      16.154551699999999
   318   1              18.3785071      10.421714290000001             32.22637203
   319   1      19.252830660000001             13.52613584      28.571999590000001
   320   1      15.555060299999999      1.1534679400000001      19.808924139999998
   321   1      15.963244250000001             12.69166085             26.21988035
   322   1             18.84464672      1.9879429200000001             22.16104339
   323   1      20.963136739999999      9.9343087000000008      29.499945709999999
   324   1      13.844754229999999      4.7452950700000001      18.880978030000001
   325   1      24.698088429999999      6.1748971399999997      39.373363349999998
   326   1      22.505234290000001      8.6269825600000001      41.261509539999999
   327   1      23.299835529999999      7.2763270100000002      37.463929559999997
   328   1             23.90348719      7.5255526899999996             43.17094333
   329   1             26.07173177      6.1554748500000001      39.641716209999998
   330   1             21.13159095      8.6464048499999997      40.993156679999998
   331   1      25.700549859999999      7.3405852200000004      37.627457079999999
   332   1      21.502772870000001      7.4612944800000003      43.007415799999997
   333   1             27.45738716      9.1489638699999993      39.572047679999997
   334   1      19.745935559999999      5.6529158300000004             41.06282521
   335   1      27.796094289999999              7.93852198             38.99583088
   336   1             19.40722843      6.8633577199999998      41.639042009999997
   337   1             27.80205703      5.9084824500000002      37.812272210000003
   338   1      19.401265689999999      8.8933972400000005      42.822600680000001
   339   1             28.47400558             10.04006242      39.920874140000002
   340   1             18.72931715      4.7618172799999998      40.713998750000002
   341   1      26.588432860000001      5.5337766200000003      40.762057130000002
   342   1      20.614889860000002      9.2681030700000004      39.872815760000002
   343   1      15.359136810000001              2.14009998      34.956830089999997
   344   1             31.84418591      12.661779709999999      45.678042789999999
   345   1      27.457288179999999      4.8232702400000003      37.040273939999999
   346   1             19.74603454      9.9786094599999995      43.594598949999998
   347   1             26.84045304      6.8547179099999997      38.518794970000002
   348   1      20.362869679999999              7.94716179      42.116077920000002
   349   1             29.12324869      7.5888724999999999      38.727800559999999
   350   1      18.080074029999999      7.2130071999999998      41.907072329999998
   351   1      29.787788970000001             14.63375574      40.646265460000002
   352   1      17.415533750000002     0.16812395999999999      39.988607430000002
   353   1      29.874349240000001             13.83860076      38.379941719999998
   354   1      17.328973479999998     0.96327894000000003      42.254931169999999
   355   1      23.829323339999998      5.5526109000000003      40.262120920000001
   356   1      23.373999380000001      9.2492687999999994      40.372751970000003
   357   1      29.132160389999999      6.3081268000000001      37.999345120000001
   358   1             18.07116233      8.4937529000000005      42.635527770000003