LAMMPS (29 Aug 2024 - Development - 6d634dc-modified)
OMP_NUM_THREADS environment is not set. Defaulting to 1 thread. (src/comm.cpp:99)
  using 1 OpenMP thread(s) per MPI task
Reading data file ...
  triclinic box = (0 0 0) to (23.496 23.496 97) with tilt (0 0 0)
  1 by 1 by 1 MPI processor grid
  reading atoms ...
  1280 atoms
  read_data CPU = 0.013 seconds
NEQUIP is using device cuda
NequIP Coeff: type 1 is element Br
NequIP Coeff: type 2 is element Cs
NequIP Coeff: type 3 is element Pb
Loading model from ./best.pth
Freezing TorchScript model...

CITE-CITE-CITE-CITE-CITE-CITE-CITE-CITE-CITE-CITE-CITE-CITE-CITE

Your simulation uses code contributions which should be cited:
- Type Label Framework: https://doi.org/10.1021/acs.jpcb.3c08419
The log file lists these citations in BibTeX format.

CITE-CITE-CITE-CITE-CITE-CITE-CITE-CITE-CITE-CITE-CITE-CITE-CITE

Neighbor list info ...
  update: every = 1 steps, delay = 5 steps, check = yes
  max neighbors/atom: 2000, page size: 100000
  master list distance cutoff = 9
  ghost atom cutoff = 9
  binsize = 4.5, bins = 6 6 22
  1 neighbor lists, perpetual/occasional/extra = 1 0 0
  (1) pair nequip, perpetual
      attributes: full, newton off
      pair build: full/bin/atomonly
      stencil: full/bin/3d
      bin: standard
Setting up Verlet run ...
  Unit style    : metal
  Current step  : 0
  Time step     : 0.003
Per MPI rank memory allocation (min/avg/max) = 3.23 | 3.23 | 3.23 Mbytes
   Step          Temp          PotEng         KinEng         TotEng         Press            Lx             Ly             Lz             Xy             Xz             Yz      
         0   840           -32240.825      138.87193     -32101.953      11357.112      23.496         23.496         97             0              0              0            
       100   933.50697     -32329.468      154.33085     -32175.137      10485.544      23.496         23.496         97             0              0              0            
       200   860.76173     -32355.296      142.30434     -32212.992      6930.1944      23.496         23.496         97             0              0              0            
       300   851.04206     -32367.122      140.69744     -32226.425      6343.0187      23.496         23.496         97             0              0              0            
       400   842.49497     -32363.189      139.28441     -32223.905      6003.617       23.496         23.496         97             0              0              0            
       500   855.02091     -32371.548      141.35524     -32230.193      6420.2952      23.496         23.496         97             0              0              0            
       600   821.67612     -32367.827      135.84256     -32231.984      6350.7592      23.496         23.496         97             0              0              0            
       700   828.23035     -32368.78       136.92613     -32231.854      7243.7025      23.496         23.496         97             0              0              0            
       800   845.18145     -32366.221      139.72855     -32226.492      6774.7273      23.496         23.496         97             0              0              0            
       900   852.53344     -32366.413      140.944       -32225.469      8903.6691      23.496         23.496         97             0              0              0            
      1000   838.3968      -32372.616      138.60688     -32234.009      6619.5002      23.496         23.496         97             0              0              0            
Loop time of 98.2323 on 1 procs for 1000 steps with 1280 atoms

Performance: 2.639 ns/day, 9.096 hours/ns, 10.180 timesteps/s, 13.030 katom-step/s
98.8% CPU use with 1 MPI tasks x 1 OpenMP threads

MPI task timing breakdown:
Section |  min time  |  avg time  |  max time  |%varavg| %total
---------------------------------------------------------------
Pair    | 97.911     | 97.911     | 97.911     |   0.0 | 99.67
Neigh   | 0.26781    | 0.26781    | 0.26781    |   0.0 |  0.27
Comm    | 0.011511   | 0.011511   | 0.011511   |   0.0 |  0.01
Output  | 0.02076    | 0.02076    | 0.02076    |   0.0 |  0.02
Modify  | 0.018122   | 0.018122   | 0.018122   |   0.0 |  0.02
Other   |            | 0.003417   |            |       |  0.00

Nlocal:           1280 ave        1280 max        1280 min
Histogram: 1 0 0 0 0 0 0 0 0 0
Nghost:           3615 ave        3615 max        3615 min
Histogram: 1 0 0 0 0 0 0 0 0 0
Neighs:              0 ave           0 max           0 min
Histogram: 1 0 0 0 0 0 0 0 0 0
FullNghs:        92514 ave       92514 max       92514 min
Histogram: 1 0 0 0 0 0 0 0 0 0

Total # of neighbors = 92514
Ave neighs/atom = 72.276562
Neighbor list builds = 86
Dangerous builds = 0
System init for write_data ...
Setting up Verlet run ...
  Unit style    : metal
  Current step  : 0
  Time step     : 0.003
Per MPI rank memory allocation (min/avg/max) = 3.23 | 3.23 | 3.23 Mbytes
   Step          Temp          PotEng         KinEng         TotEng         Press            Lx             Ly             Lz             Xy             Xz             Yz      
         0   838.3968      -32372.616      138.60688     -32234.009      6620.3079      23.496         23.496         97             0              0              0            
       100   806.3937      -32370.715      133.31601     -32237.399      1701.232       23.496         23.496         100.12564      0              0              0            
       200   799.07315     -32369.951      132.10575     -32237.845      1092.1787      23.496         23.496         101.83154      0              0              0            
       300   791.70642     -32367.343      130.88786     -32236.455      535.66276      23.496         23.496         102.2597       0              0              0            
       400   808.83188     -32366.622      133.7191      -32232.903      1427.6878      23.496         23.496         101.94633      0              0              0            
       500   816.72067     -32367.42       135.0233      -32232.397      1301.8948      23.496         23.496         102.30894      0              0              0            
       600   818.56033     -32367.566      135.32744     -32232.239      935.65454      23.496         23.496         102.53404      0              0              0            
       700   827.26552     -32367.983      136.76662     -32231.216      538.01653      23.496         23.496         102.7294       0              0              0            
       800   842.60936     -32369.676      139.30332     -32230.373      690.31008      23.496         23.496         102.67051      0              0              0            
       900   815.73982     -32363.344      134.86115     -32228.483      2194.0521      23.496         23.496         102.55159      0              0              0            
      1000   783.11088     -32358.974      129.46681     -32229.507      1807.8483      23.496         23.496         103.10905      0              0              0            
      1100   811.35986     -32365.317      134.13703     -32231.18       1907.5699      23.496         23.496         103.46077      0              0              0            
      1200   802.85416     -32362.316      132.73084     -32229.585      1605.1704      23.496         23.496         104.15235      0              0              0            
      1300   805.26486     -32363.411      133.12939     -32230.281      482.73972      23.496         23.496         104.54203      0              0              0            
      1400   808.62619     -32361.563      133.68509     -32227.878      1740.1322      23.496         23.496         105.06565      0              0              0            
      1500   790.02688     -32356.74       130.61019     -32226.13       286.61444      23.496         23.496         105.68404      0              0              0            
      1600   790.32152     -32357.188      130.6589      -32226.529      1913.6631      23.496         23.496         106.01325      0              0              0            
      1700   788.39891     -32356.934      130.34105     -32226.593      645.65108      23.496         23.496         106.18701      0              0              0            
      1800   802.14591     -32358.588      132.61375     -32225.975      1956.5273      23.496         23.496         105.85447      0              0              0            
      1900   810.00367     -32356.5        133.91283     -32222.587      444.36701      23.496         23.496         106.44705      0              0              0            
      2000   810.21052     -32351.53       133.94702     -32217.583      240.16323      23.496         23.496         106.40966      0              0              0            
      2100   836.06167     -32356.464      138.22083     -32218.243      747.31405      23.496         23.496         106.33981      0              0              0            
      2200   861.85698     -32356.379      142.48541     -32213.894      1190.1614      23.496         23.496         106.34881      0              0              0            
      2300   822.65823     -32348.53       136.00492     -32212.525      1530.9457      23.496         23.496         105.97976      0              0              0            
      2400   813.01496     -32349.389      134.41066     -32214.978      1004.949       23.496         23.496         106.24187      0              0              0            
      2500   842.17958     -32353.662      139.23227     -32214.43       1127.3619      23.496         23.496         106.33934      0              0              0            
      2600   859.73208     -32355.834      142.13411     -32213.7        295.70326      23.496         23.496         105.97214      0              0              0            
      2700   860.52219     -32353.441      142.26473     -32211.176      1823.5265      23.496         23.496         105.99614      0              0              0            
      2800   851.25493     -32348.572      140.73264     -32207.84       525.72192      23.496         23.496         107.03601      0              0              0            
      2900   889.48632     -32353.317      147.05319     -32206.264      955.99229      23.496         23.496         106.36989      0              0              0            
      3000   878.93268     -32353.621      145.30843     -32208.312      2027.6089      23.496         23.496         105.77927      0              0              0            
      3100   860.47821     -32351.826      142.25746     -32209.569     -38.651468      23.496         23.496         106.88152      0              0              0            
      3200   845.08805     -32348.177      139.71311     -32208.464      1524.5078      23.496         23.496         106.71763      0              0              0            
      3300   851.61329     -32349.288      140.79188     -32208.496      325.20066      23.496         23.496         106.35966      0              0              0            
      3400   857.7079      -32352.498      141.79947     -32210.699      1596.6141      23.496         23.496         106.20719      0              0              0            
      3500   842.08817     -32349.135      139.21715     -32209.918      622.3846       23.496         23.496         106.20965      0              0              0            
      3600   855.22089     -32348.475      141.3883      -32207.086      1867.5065      23.496         23.496         105.72076      0              0              0            
      3700   831.74942     -32342.927      137.50791     -32205.419      1509.8366      23.496         23.496         106.32773      0              0              0            
      3800   846.81636     -32348.112      139.99883     -32208.113      194.07285      23.496         23.496         106.15038      0              0              0            
      3900   851.72483     -32351.976      140.81032     -32211.166      1663.5727      23.496         23.496         105.38335      0              0              0            
      4000   849.96928     -32351.937      140.52009     -32211.417      1437.6292      23.496         23.496         105.33973      0              0              0            
      4100   871.11794     -32356.149      144.01646     -32212.132      631.74557      23.496         23.496         105.63935      0              0              0            
      4200   843.74805     -32354.005      139.49157     -32214.513      983.97859      23.496         23.496         105.32538      0              0              0            
      4300   839.83268     -32355.964      138.84427     -32217.12       1154.7625      23.496         23.496         104.79895      0              0              0            
      4400   866.32791     -32363.069      143.22456     -32219.845      2036.4953      23.496         23.496         104.37209      0              0              0            
      4500   810.81027     -32355.561      134.04617     -32221.515      708.69043      23.496         23.496         104.49744      0              0              0            
      4600   824.41358     -32357.584      136.29512     -32221.288      1791.6257      23.496         23.496         104.53623      0              0              0            
      4700   850.57513     -32360.937      140.62025     -32220.317      1767.8415      23.496         23.496         104.86586      0              0              0            
      4800   821.08692     -32354.088      135.74515     -32218.343      889.56188      23.496         23.496         104.83283      0              0              0            
      4900   834.50567     -32353.672      137.96359     -32215.709      1908.8445      23.496         23.496         104.27243      0              0              0            
      5000   867.40042     -32356.705      143.40187     -32213.303      1393.5504      23.496         23.496         104.36742      0              0              0            
      5100   867.76422     -32356.53       143.46201     -32213.068      1304.1495      23.496         23.496         104.73243      0              0              0            
      5200   875.94217     -32360.145      144.81402     -32215.331      1160.2959      23.496         23.496         105.14159      0              0              0            
      5300   876.97246     -32359.575      144.98435     -32214.591      872.40818      23.496         23.496         105.14531      0              0              0            
      5400   839.56238     -32355.207      138.79958     -32216.407      1239.6202      23.496         23.496         104.66822      0              0              0            
      5500   835.74912     -32356.647      138.16916     -32218.478      1338.6058      23.496         23.496         104.80425      0              0              0            
      5600   836.08378     -32355.819      138.22448     -32217.594      1767.3317      23.496         23.496         104.90759      0              0              0            
      5700   828.56804     -32355.503      136.98196     -32218.521      1441.6967      23.496         23.496         105.10636      0              0              0            
      5800   806.90692     -32353.739      133.40086     -32220.338      1335.1151      23.496         23.496         105.06766      0              0              0            
      5900   851.95884     -32363.245      140.84901     -32222.396      1132.1665      23.496         23.496         104.75524      0              0              0            
      6000   822.45722     -32359.784      135.97169     -32223.813      1398.0497      23.496         23.496         104.27508      0              0              0            
      6100   838.79119     -32361.454      138.67208     -32222.782      808.98025      23.496         23.496         104.65162      0              0              0            
      6200   843.62498     -32360.423      139.47123     -32220.952      936.18377      23.496         23.496         105.23514      0              0              0            
      6300   860.81531     -32362.288      142.31319     -32219.975      1623.9725      23.496         23.496         105.02407      0              0              0            
      6400   860.8752      -32361.825      142.3231      -32219.502      1377.3543      23.496         23.496         105.0604       0              0              0            
      6500   850.05602     -32360.1        140.53443     -32219.566      1310.4022      23.496         23.496         104.7723       0              0              0            
      6600   871.45509     -32361.271      144.0722      -32217.199      2870.5194      23.496         23.496         103.90158      0              0              0            
      6700   844.31442     -32359.037      139.58521     -32219.451      2570.6113      23.496         23.496         104.18551      0              0              0            
      6800   845.59509     -32359.955      139.79693     -32220.158      402.28858      23.496         23.496         105.16095      0              0              0            
      6900   829.92735     -32358.389      137.20668     -32221.182      986.57606      23.496         23.496         104.96648      0              0              0            
      7000   851.88808     -32360.902      140.83731     -32220.065      1091.801       23.496         23.496         104.13043      0              0              0            
      7100   831.74332     -32357.937      137.5069      -32220.43       1438.01        23.496         23.496         103.4223       0              0              0            
      7200   858.69512     -32358.887      141.96268     -32216.924      1534.1493      23.496         23.496         103.97839      0              0              0            
      7300   838.73794     -32356.82       138.66328     -32218.157      2315.0461      23.496         23.496         103.81549      0              0              0            
      7400   876.86934     -32364.071      144.96731     -32219.104      1092.4158      23.496         23.496         103.74538      0              0              0            
      7500   857.29625     -32360.477      141.73141     -32218.745      1371.3911      23.496         23.496         103.55351      0              0              0            
      7600   844.53504     -32362.09       139.62168     -32222.469      3358.736       23.496         23.496         102.63039      0              0              0            
      7700   854.96673     -32364.675      141.34628     -32223.329      1230.5722      23.496         23.496         103.31211      0              0              0            
      7800   843.83624     -32368.045      139.50615     -32228.538      1256.2936      23.496         23.496         103.51351      0              0              0            
      7900   833.15321     -32366.043      137.73999     -32228.303      2923.7967      23.496         23.496         102.90198      0              0              0            
      8000   826.91496     -32367.935      136.70866     -32231.226      1770.4542      23.496         23.496         102.9765       0              0              0            
      8100   843.58352     -32365.922      139.46437     -32226.457      1489.3318      23.496         23.496         103.66751      0              0              0            
      8200   828.53755     -32363.839      136.97691     -32226.862      1185.3698      23.496         23.496         103.51295      0              0              0            
      8300   842.47918     -32368.265      139.2818      -32228.983      1895.8753      23.496         23.496         102.89687      0              0              0            
      8400   829.77919     -32363.482      137.18219     -32226.3        1888.8203      23.496         23.496         103.2123       0              0              0            
      8500   853.65663     -32366.456      141.12969     -32225.327      986.75027      23.496         23.496         104.17159      0              0              0            
      8600   857.19735     -32366.682      141.71506     -32224.967      1207.1381      23.496         23.496         103.99129      0              0              0            
      8700   807.82167     -32360.113      133.55209     -32226.561      2568.1256      23.496         23.496         103.39146      0              0              0            
      8800   841.80702     -32365.353      139.17067     -32226.182      992.4215       23.496         23.496         103.89597      0              0              0            
      8900   830.51904     -32366.946      137.3045      -32229.642      2211.7858      23.496         23.496         103.45731      0              0              0            
      9000   828.4164      -32367.588      136.95689     -32230.631      2397.3549      23.496         23.496         102.68314      0              0              0            
      9100   831.97766     -32367.98       137.54565     -32230.434      706.83126      23.496         23.496         103.68574      0              0              0            
      9200   841.51345     -32372.089      139.12214     -32232.967      964.09404      23.496         23.496         103.84226      0              0              0            
      9300   813.19269     -32366.765      134.44004     -32232.325      1750.0481      23.496         23.496         103.23773      0              0              0            
      9400   833.60419     -32369.381      137.81455     -32231.566      1343.0357      23.496         23.496         102.98674      0              0              0            
      9500   847.98362     -32371.304      140.19181     -32231.112      966.42287      23.496         23.496         103.33898      0              0              0            
      9600   833.53134     -32366.825      137.80251     -32229.022      1481.0444      23.496         23.496         102.95618      0              0              0            
      9700   832.13319     -32367.972      137.57136     -32230.4        1598.9139      23.496         23.496         102.55452      0              0              0            
      9800   816.47453     -32365.071      134.98261     -32230.089      1372.0517      23.496         23.496         102.69032      0              0              0            
      9900   837.91132     -32368.981      138.52662     -32230.455      829.90252      23.496         23.496         103.15223      0              0              0            
     10000   838.50991     -32368.389      138.62558     -32229.763      1630.5441      23.496         23.496         102.90988      0              0              0            
     10100   836.00454     -32371.476      138.21138     -32233.265      2267.6315      23.496         23.496         102.47364      0              0              0            
     10200   826.25652     -32366.537      136.59981     -32229.937      1654.561       23.496         23.496         102.73863      0              0              0            
     10300   829.14711     -32368.686      137.07769     -32231.608      474.06817      23.496         23.496         103.75392      0              0              0            
     10400   839.26848     -32368.503      138.75099     -32229.752      1695.4071      23.496         23.496         103.60254      0              0              0            
     10500   832.08473     -32367.583      137.56335     -32230.02       930.26589      23.496         23.496         103.23264      0              0              0            
     10600   839.59813     -32367.703      138.80549     -32228.897      1425.2463      23.496         23.496         103.44007      0              0              0            
     10700   816.00212     -32362.606      134.90451     -32227.702      2259.3429      23.496         23.496         103.26607      0              0              0            
     10800   830.18131     -32365.266      137.24867     -32228.017      1627.5327      23.496         23.496         103.51198      0              0              0            
     10900   813.47085     -32362.238      134.48603     -32227.752      510.35851      23.496         23.496         103.22238      0              0              0            
     11000   838.03983     -32367.588      138.54787     -32229.04       2455.6813      23.496         23.496         102.02305      0              0              0            
     11100   840.1515      -32370.193      138.89698     -32231.296      1077.7283      23.496         23.496         102.89108      0              0              0            
     11200   804.90636     -32364.411      133.07012     -32231.341      953.49503      23.496         23.496         103.59599      0              0              0            
     11300   848.78772     -32373.211      140.32475     -32232.887      1243.1223      23.496         23.496         103.22382      0              0              0            
     11400   833.53202     -32371.581      137.80262     -32233.779      2087.3345      23.496         23.496         102.64388      0              0              0            
     11500   862.5095      -32374.495      142.59328     -32231.902      1016.5695      23.496         23.496         102.47287      0              0              0            
     11600   838.23653     -32369.583      138.58039     -32231.002      1439.9451      23.496         23.496         102.33516      0              0              0            
     11700   860.98426     -32373.508      142.34112     -32231.166      2226.9071      23.496         23.496         101.71252      0              0              0            
     11800   814.69995     -32368.701      134.68923     -32234.012      1208.1633      23.496         23.496         102.05652      0              0              0            
     11900   820.01422     -32371.357      135.56781     -32235.789      763.34482      23.496         23.496         101.68699      0              0              0            
     12000   827.41274     -32373.977      136.79096     -32237.186      1864.7689      23.496         23.496         100.931        0              0              0            
     12100   821.52303     -32370.843      135.81725     -32235.026      2752.9389      23.496         23.496         101.1249       0              0              0            
     12200   819.78914     -32368.441      135.53059     -32232.911      1249.8606      23.496         23.496         102.45583      0              0              0            
     12300   831.49197     -32371.256      137.46535     -32233.791      1152.2696      23.496         23.496         102.03242      0              0              0            
     12400   857.12239     -32375.201      141.70267     -32233.499      1919.4526      23.496         23.496         101.24723      0              0              0            
     12500   850.68046     -32374.035      140.63766     -32233.398      1250.6127      23.496         23.496         101.98908      0              0              0            
     12600   847.38517     -32370.301      140.09287     -32230.208      1474.5921      23.496         23.496         102.12649      0              0              0            
     12700   843.84811     -32372.545      139.50811     -32233.037      1298.6614      23.496         23.496         101.95303      0              0              0            
     12800   848.63769     -32371          140.29994     -32230.7        1351.4169      23.496         23.496         102.27332      0              0              0            
     12900   842.61138     -32370.589      139.30365     -32231.285      1348.9249      23.496         23.496         103.02747      0              0              0            
     13000   820.3493      -32365.771      135.6232      -32230.148      2149.8138      23.496         23.496         102.59457      0              0              0            
     13100   833.56128     -32370.885      137.80746     -32233.078      2516.8855      23.496         23.496         102.14309      0              0              0            
     13200   860.26895     -32375.266      142.22287     -32233.043      1458.5829      23.496         23.496         102.3658       0              0              0            
     13300   804.70343     -32369.042      133.03657     -32236.005      1237.5926      23.496         23.496         102.69663      0              0              0            
     13400   817.79504     -32370.473      135.20092     -32235.272      1543.1066      23.496         23.496         102.91025      0              0              0            
     13500   798.29476     -32365.432      131.97706     -32233.455      1165.0681      23.496         23.496         102.99055      0              0              0            
     13600   848.32974     -32372.219      140.24903     -32231.97       971.23759      23.496         23.496         102.68646      0              0              0            
     13700   810.72745     -32369.127      134.03248     -32235.095      1955.9113      23.496         23.496         102.46457      0              0              0            
     13800   834.79562     -32374.025      138.01152     -32236.013      1155.8219      23.496         23.496         102.54345      0              0              0            
     13900   837.72074     -32373.624      138.49511     -32235.129      1815.4653      23.496         23.496         102.35079      0              0              0            
     14000   820.37836     -32370.929      135.62801     -32235.301      1650.496       23.496         23.496         102.42509      0              0              0            
     14100   837.82268     -32372.551      138.51197     -32234.039      1969.6141      23.496         23.496         102.3706       0              0              0            
     14200   837.72252     -32373.352      138.49541     -32234.857      1162.4714      23.496         23.496         102.77304      0              0              0            
     14300   841.57925     -32373.957      139.13302     -32234.824      542.69609      23.496         23.496         102.79644      0              0              0            
     14400   841.0443      -32370.169      139.04458     -32231.124      2152.9503      23.496         23.496         102.10952      0              0              0            
     14500   851.19136     -32373.338      140.72213     -32232.616      1164.1028      23.496         23.496         102.25622      0              0              0            
     14600   834.87169     -32372.582      138.0241      -32234.558      2078.0461      23.496         23.496         102.05675      0              0              0            
     14700   839.10413     -32371.548      138.72382     -32232.824      1799.7824      23.496         23.496         102.17754      0              0              0            
     14800   838.42636     -32370.864      138.61177     -32232.252      1047.4868      23.496         23.496         102.53466      0              0              0            
     14900   839.01985     -32372.715      138.70989     -32234.005      896.29292      23.496         23.496         102.73564      0              0              0            
     15000   841.04511     -32373.765      139.04471     -32234.72       1149.9071      23.496         23.496         103.0179       0              0              0            
     15100   835.48062     -32374.757      138.12477     -32236.632      1765.6493      23.496         23.496         102.81221      0              0              0            
     15200   832.22132     -32372.994      137.58593     -32235.408      553.47172      23.496         23.496         103.10737      0              0              0            
     15300   834.10855     -32375.117      137.89793     -32237.219      1526.2717      23.496         23.496         102.74228      0              0              0            
     15400   838.4749      -32374.574      138.61979     -32235.954      1910.6473      23.496         23.496         102.46942      0              0              0            
     15500   810.0334      -32371.351      133.91774     -32237.434      846.69286      23.496         23.496         102.38585      0              0              0            
     15600   831.86717     -32374.03       137.52738     -32236.503      1697.6887      23.496         23.496         102.38908      0              0              0            
     15700   813.8175      -32373.313      134.54334     -32238.769      1318.5741      23.496         23.496         102.11521      0              0              0            
     15800   856.51316     -32379.185      141.60195     -32237.583      2166.9602      23.496         23.496         101.54645      0              0              0            
     15900   827.09385     -32373.12       136.73824     -32236.381      2026.3367      23.496         23.496         101.61835      0              0              0            
     16000   815.84914     -32372.568      134.87922     -32237.688      851.62208      23.496         23.496         102.19591      0              0              0            
     16100   804.52011     -32371.366      133.00626     -32238.36       1823.7166      23.496         23.496         101.97363      0              0              0            
     16200   852.64787     -32379.859      140.96292     -32238.896      1756.0395      23.496         23.496         101.4346       0              0              0            
     16300   808.49334     -32371.7        133.66313     -32238.037      1097.0143      23.496         23.496         101.92011      0              0              0            
     16400   835.21534     -32373.364      138.08091     -32235.283      3020.6948      23.496         23.496         101.38829      0              0              0            
     16500   853.71944     -32374.17       141.14008     -32233.03       1733.8064      23.496         23.496         101.59285      0              0              0            
     16600   866.27105     -32375.427      143.21516     -32232.211      1447.6422      23.496         23.496         101.67746      0              0              0            
     16700   840.73911     -32370.796      138.99412     -32231.802      2355.796       23.496         23.496         101.55592      0              0              0            
     16800   861.59406     -32374.421      142.44194     -32231.979      1803.8306      23.496         23.496         102.08826      0              0              0            
     16900   853.23995     -32375.839      141.06081     -32234.778      1151.3679      23.496         23.496         102.47143      0              0              0            
     17000   835.10276     -32373.518      138.0623      -32235.455      1602.002       23.496         23.496         101.9896       0              0              0            
     17100   849.96939     -32371.95       140.52011     -32231.43       1754.4107      23.496         23.496         101.64629      0              0              0            
     17200   851.90762     -32371.946      140.84054     -32231.105      1309.2689      23.496         23.496         101.99012      0              0              0            
     17300   821.59181     -32366.286      135.82862     -32230.457      1297.1241      23.496         23.496         102.33335      0              0              0            
     17400   839.8667      -32370.42       138.84989     -32231.57       872.09544      23.496         23.496         102.33685      0              0              0            
     17500   861.18872     -32373.646      142.37493     -32231.271      1634.5565      23.496         23.496         101.99724      0              0              0            
     17600   860.08767     -32376.506      142.1929      -32234.313      945.99979      23.496         23.496         102.06596      0              0              0            
     17700   831.95197     -32369.022      137.5414      -32231.481      2729.5147      23.496         23.496         101.71196      0              0              0            
     17800   823.30207     -32369.679      136.11137     -32233.567      1087.8807      23.496         23.496         102.44675      0              0              0            
     17900   818.69956     -32369.334      135.35046     -32233.983      1617.7367      23.496         23.496         102.18695      0              0              0            
     18000   837.69863     -32372.548      138.49146     -32234.057      618.36845      23.496         23.496         101.70744      0              0              0            
     18100   824.86384     -32369.129      136.36956     -32232.759      778.56571      23.496         23.496         102.35427      0              0              0            
     18200   817.91354     -32370.35       135.22051     -32235.129      1193.4554      23.496         23.496         102.29927      0              0              0            
     18300   819.26171     -32373.547      135.4434      -32238.103      1438.3408      23.496         23.496         101.9379       0              0              0            
     18400   805.28984     -32370.454      133.13352     -32237.32       1602.8157      23.496         23.496         101.26464      0              0              0            
     18500   851.31166     -32377.636      140.74202     -32236.894      2218.1851      23.496         23.496         101.24212      0              0              0            
     18600   846.81558     -32377.282      139.99871     -32237.284      1942.1601      23.496         23.496         101.50627      0              0              0            
     18700   835.4804      -32374.255      138.12473     -32236.13       1906.6821      23.496         23.496         101.42884      0              0              0            
     18800   856.74177     -32375.868      141.63974     -32234.228      2779.4746      23.496         23.496         100.84717      0              0              0            
     18900   838.73543     -32374.529      138.66287     -32235.866      1821.0511      23.496         23.496         100.91274      0              0              0            
     19000   834.89226     -32372.791      138.0275      -32234.764      1555.3683      23.496         23.496         101.47444      0              0              0            
     19100   827.13223     -32372.991      136.74458     -32236.246      1314.3862      23.496         23.496         101.94132      0              0              0            
     19200   833.38828     -32372.99       137.77885     -32235.211      2343.4814      23.496         23.496         101.26615      0              0              0            
     19300   859.45275     -32378.014      142.08793     -32235.927      2305.4008      23.496         23.496         100.51199      0              0              0            
     19400   815.04711     -32372.353      134.74662     -32237.606      1612.893       23.496         23.496         101.7662       0              0              0            
     19500   821.56359     -32375.061      135.82395     -32239.237      1184.9466      23.496         23.496         101.99852      0              0              0            
     19600   846.2111      -32378.242      139.89877     -32238.343      2835.6039      23.496         23.496         100.90077      0              0              0            
     19700   849.9423      -32379.754      140.51563     -32239.238      2089.2765      23.496         23.496         101.36373      0              0              0            
     19800   821.14109     -32374.704      135.7541      -32238.95       1060.3838      23.496         23.496         101.72333      0              0              0            
     19900   833.17116     -32377.657      137.74296     -32239.914      2055.8242      23.496         23.496         101.27693      0              0              0            
     20000   819.77436     -32374.332      135.52815     -32238.804      1969.5685      23.496         23.496         101.16176      0              0              0            
     20100   836.9714      -32377.376      138.37123     -32239.005      922.35556      23.496         23.496         101.90336      0              0              0            
     20200   814.01284     -32372.939      134.57564     -32238.363      1218.5398      23.496         23.496         102.39002      0              0              0            
     20300   823.38914     -32374.306      136.12576     -32238.181      1846.2466      23.496         23.496         101.70053      0              0              0            
     20400   828.96134     -32377.698      137.04698     -32240.651      2377.9945      23.496         23.496         101.11931      0              0              0            
     20500   811.37604     -32374.342      134.13971     -32240.202      499.97548      23.496         23.496         102.66096      0              0              0            
     20600   820.88724     -32374.867      135.71214     -32239.155      924.83728      23.496         23.496         102.70571      0              0              0            
     20700   834.51864     -32377.3        137.96573     -32239.334      1935.5551      23.496         23.496         101.42004      0              0              0            
     20800   811.2019      -32375.146      134.11092     -32241.035      2441.2564      23.496         23.496         101.52744      0              0              0            
     20900   818.53        -32372.059      135.32243     -32236.737     -85.910134      23.496         23.496         102.79877      0              0              0            
     21000   854.22695     -32375.16       141.22398     -32233.936      1185.0881      23.496         23.496         101.83295      0              0              0            
     21100   850.24868     -32375.266      140.56628     -32234.699      1923.2425      23.496         23.496         101.00513      0              0              0            
     21200   831.74519     -32374.99       137.50721     -32237.483      1221.2692      23.496         23.496         101.88589      0              0              0            
     21300   850.57458     -32378.815      140.62016     -32238.194      879.35288      23.496         23.496         101.96623      0              0              0            
     21400   849.02629     -32376.115      140.36419     -32235.751      2181.5242      23.496         23.496         101.22196      0              0              0            
     21500   835.41609     -32374.875      138.1141      -32236.761      1936.5839      23.496         23.496         101.14487      0              0              0            
     21600   842.10057     -32375.324      139.2192      -32236.105      1758.4168      23.496         23.496         101.28885      0              0              0            
     21700   848.93165     -32375.867      140.34854     -32235.518      2251.1007      23.496         23.496         101.47112      0              0              0            
     21800   833.49031     -32375.21       137.79572     -32237.415      871.12478      23.496         23.496         101.55735      0              0              0            
     21900   829.67302     -32377.108      137.16464     -32239.944      2627.8422      23.496         23.496         100.7715       0              0              0            
     22000   820.81913     -32377.587      135.70088     -32241.886      1312.4745      23.496         23.496         101.34569      0              0              0            
     22100   854.22032     -32382.855      141.22289     -32241.632      970.70659      23.496         23.496         101.29893      0              0              0            
     22200   822.41404     -32375.561      135.96455     -32239.597      1131.5826      23.496         23.496         101.38895      0              0              0            
     22300   850.7582      -32378.024      140.65052     -32237.373      2398.0794      23.496         23.496         101.42924      0              0              0            
     22400   857.20344     -32379.245      141.71607     -32237.529      1995.0261      23.496         23.496         101.56611      0              0              0            
     22500   796.63344     -32371.379      131.70241     -32239.677      1338.6798      23.496         23.496         102.00037      0              0              0            
     22600   824.32103     -32380.054      136.27982     -32243.774      697.19088      23.496         23.496         102.36396      0              0              0            
     22700   859.06921     -32384.787      142.02452     -32242.763      2323.1042      23.496         23.496         101.47929      0              0              0            
     22800   844.77464     -32379.683      139.66129     -32240.021      1820.799       23.496         23.496         101.68928      0              0              0            
     22900   837.31911     -32377.916      138.42871     -32239.487      424.44371      23.496         23.496         102.65053      0              0              0            
     23000   806.0141      -32372.835      133.25325     -32239.582      1890.0273      23.496         23.496         101.90436      0              0              0            
     23100   806.95729     -32371.071      133.40919     -32237.662      1257.7113      23.496         23.496         101.67998      0              0              0            
     23200   830.52599     -32372.889      137.30565     -32235.584      453.18346      23.496         23.496         102.00685      0              0              0            
     23300   852.5534      -32375.117      140.94731     -32234.169      1239.8626      23.496         23.496         101.54876      0              0              0            
     23400   839.89203     -32371.557      138.85408     -32232.703      1706.5928      23.496         23.496         101.9235       0              0              0            
     23500   853.88887     -32373.837      141.16809     -32232.669      973.78377      23.496         23.496         102.05354      0              0              0            
     23600   868.19985     -32373.255      143.53403     -32229.721      2328.4284      23.496         23.496         101.24283      0              0              0            
     23700   847.26358     -32368.582      140.07277     -32228.509      2525.4605      23.496         23.496         101.07247      0              0              0            
     23800   893.96352     -32375.967      147.79338     -32228.174      2541.1273      23.496         23.496         101.05548      0              0              0            
     23900   833.5272      -32366.302      137.80182     -32228.5        1885.7607      23.496         23.496         101.25293      0              0              0            
     24000   822.36669     -32366.701      135.95673     -32230.744      2653.3202      23.496         23.496         101.62344      0              0              0            
     24100   876.52166     -32373.123      144.90983     -32228.213      753.86914      23.496         23.496         101.97106      0              0              0            
     24200   867.54867     -32374.259      143.42638     -32230.833      1443.0853      23.496         23.496         101.779        0              0              0            
     24300   837.98752     -32368.295      138.53922     -32229.756      1514.2607      23.496         23.496         102.15375      0              0              0            
     24400   847.9756      -32372.697      140.19049     -32232.507      1189.3848      23.496         23.496         102.27994      0              0              0            
     24500   860.49637     -32375.538      142.26046     -32233.277      1357.8571      23.496         23.496         102.07574      0              0              0            
     24600   850.03673     -32376.605      140.53124     -32236.074      1358.8426      23.496         23.496         102.24203      0              0              0            
     24700   830.22871     -32372.967      137.2565      -32235.71       2135.2246      23.496         23.496         102.30336      0              0              0            
     24800   841.37869     -32375.397      139.09986     -32236.297      1935.1267      23.496         23.496         102.37948      0              0              0            
     24900   839.13626     -32375.323      138.72913     -32236.593      1556.44        23.496         23.496         102.3095       0              0              0            
     25000   842.16813     -32377.271      139.23037     -32238.04       1074.2465      23.496         23.496         101.96017      0              0              0            
     25100   798.5544      -32372.595      132.01999     -32240.575      2018.0421      23.496         23.496         101.36345      0              0              0            
     25200   843.90336     -32379.46       139.51725     -32239.943      803.65464      23.496         23.496         102.25455      0              0              0            
     25300   806.59329     -32372.081      133.34901     -32238.732      1078.2945      23.496         23.496         102.62843      0              0              0            
     25400   847.18002     -32376.482      140.05896     -32236.423      2358.1488      23.496         23.496         101.46122      0              0              0            
     25500   826.44906     -32371.695      136.63164     -32235.064      2461.237       23.496         23.496         101.25398      0              0              0            
     25600   832.44341     -32371.05       137.62265     -32233.427      806.66157      23.496         23.496         102.28242      0              0              0            
     25700   841.95051     -32374.217      139.1944      -32235.023      2002.8018      23.496         23.496         101.77039      0              0              0            
     25800   862.45619     -32378.323      142.58447     -32235.739      1480.2341      23.496         23.496         101.85689      0              0              0            
     25900   830.24117     -32372.363      137.25856     -32235.105      2406.3827      23.496         23.496         101.20616      0              0              0            
     26000   843.8867      -32375.455      139.51449     -32235.94       2542.714       23.496         23.496         101.34381      0              0              0            
     26100   827.54754     -32373.626      136.81324     -32236.813      1455.0741      23.496         23.496         101.99776      0              0              0            
     26200   841.87993     -32375.902      139.18273     -32236.719      1957.4387      23.496         23.496         102.08051      0              0              0            
     26300   823.88352     -32371.932      136.20749     -32235.725      1259.9061      23.496         23.496         102.21673      0              0              0            
     26400   833.5093      -32374.477      137.79886     -32236.679      2057.2115      23.496         23.496         101.87628      0              0              0            
     26500   831.30576     -32374.878      137.43457     -32237.444      2347.0643      23.496         23.496         101.75136      0              0              0            
     26600   844.571       -32374.979      139.62762     -32235.352      1055.5578      23.496         23.496         102.70353      0              0              0            
     26700   832.72654     -32374.191      137.66945     -32236.522      1419.2433      23.496         23.496         102.78081      0              0              0            
     26800   815.98338     -32369.235      134.90141     -32234.333      1959.7302      23.496         23.496         102.18013      0              0              0            
     26900   855.11719     -32374.427      141.37116     -32233.056      1784.828       23.496         23.496         101.97313      0              0              0            
     27000   837.27967     -32371.826      138.42219     -32233.404      1111.3209      23.496         23.496         102.629        0              0              0            
     27100   838.32513     -32374.476      138.59503     -32235.881      1144.1352      23.496         23.496         103.101        0              0              0            
     27200   830.44913     -32372.098      137.29294     -32234.805      1180.0999      23.496         23.496         102.91052      0              0              0            
     27300   845.01734     -32374.58       139.70141     -32234.879      2196.9995      23.496         23.496         102.43447      0              0              0            
     27400   832.63408     -32374.595      137.65417     -32236.941      1536.2671      23.496         23.496         102.36255      0              0              0            
     27500   844.94407     -32376.303      139.6893      -32236.614      1728.6284      23.496         23.496         102.92633      0              0              0            
     27600   789.57075     -32366.466      130.53478     -32235.931      1821.2849      23.496         23.496         102.58549      0              0              0            
     27700   840.97122     -32375.071      139.03249     -32236.039      2725.0362      23.496         23.496         101.17241      0              0              0            
     27800   839.77425     -32373.976      138.83461     -32235.141      1168.2901      23.496         23.496         101.3467       0              0              0            
     27900   834.09744     -32370.905      137.8961      -32233.009      1841.169       23.496         23.496         101.78731      0              0              0            
     28000   848.39877     -32372.369      140.26045     -32232.109      1321.6275      23.496         23.496         102.01891      0              0              0            
     28100   865.09227     -32374.109      143.02028     -32231.088      1156.0882      23.496         23.496         101.7927       0              0              0            
     28200   861.36029     -32371.288      142.40329     -32228.884      1222.2784      23.496         23.496         101.72801      0              0              0            
     28300   878.93972     -32372.448      145.30959     -32227.139      1327.0195      23.496         23.496         101.83735      0              0              0            
     28400   862.98409     -32372.268      142.67174     -32229.597      1376.2955      23.496         23.496         101.91158      0              0              0            
     28500   828.72376     -32368.298      137.0077      -32231.29       1048.5104      23.496         23.496         101.93774      0              0              0            
     28600   850.87755     -32373.366      140.67025     -32232.695      2208.3373      23.496         23.496         101.94357      0              0              0            
     28700   829.88809     -32369.868      137.20019     -32232.668      535.49197      23.496         23.496         102.39724      0              0              0            
     28800   836.48964     -32370.733      138.29158     -32232.442      1238.2693      23.496         23.496         102.21977      0              0              0            
     28900   834.49736     -32372.146      137.96221     -32234.183      1497.4879      23.496         23.496         101.62539      0              0              0            
     29000   846.05057     -32374.327      139.87223     -32234.454      592.19606      23.496         23.496         102.24403      0              0              0            
     29100   876.9899      -32373.844      144.98724     -32228.857      2193.1751      23.496         23.496         102.28352      0              0              0            
     29200   875.86071     -32374.713      144.80056     -32229.913      1438.6396      23.496         23.496         102.55305      0              0              0            
     29300   852.0127      -32371.785      140.85791     -32230.928      1145.227       23.496         23.496         103.10665      0              0              0            
     29400   823.94392     -32369.406      136.21748     -32233.188      1529.1148      23.496         23.496         103.36036      0              0              0            
     29500   809.1434      -32366.688      133.7706      -32232.917      1464.9475      23.496         23.496         102.87736      0              0              0            
     29600   861.39767     -32375.209      142.40947     -32232.8        2513.0061      23.496         23.496         102.40656      0              0              0            
     29700   847.56699     -32371.95       140.12293     -32231.827      438.2877       23.496         23.496         103.25374      0              0              0            
     29800   868.42267     -32373.122      143.57087     -32229.551      2441.2315      23.496         23.496         102.4449       0              0              0            
     29900   850.2663      -32374.165      140.56919     -32233.596      1345.689       23.496         23.496         102.08975      0              0              0            
     30000   857.85632     -32375.892      141.824       -32234.068      1662.3423      23.496         23.496         102.53         0              0              0            
     30100   850.82769     -32374.113      140.662       -32233.451      758.93504      23.496         23.496         102.17977      0              0              0            
     30200   846.62555     -32374.536      139.96729     -32234.569      2794.6056      23.496         23.496         101.14305      0              0              0            
     30300   826.04709     -32372.471      136.56518     -32235.906      1961.1204      23.496         23.496         101.86164      0              0              0            
     30400   828.68372     -32373.593      137.00108     -32236.591     -107.34564      23.496         23.496         103.22261      0              0              0            
     30500   855.87457     -32379.585      141.49637     -32238.088      1539.8893      23.496         23.496         102.42926      0              0              0            
     30600   831.91843     -32375.757      137.53585     -32238.221      1511.2729      23.496         23.496         101.76135      0              0              0            
     30700   841.98961     -32376.624      139.20086     -32237.424      1726.5822      23.496         23.496         102.09198      0              0              0            
     30800   850.28929     -32377.537      140.57299     -32236.964      1308.5068      23.496         23.496         102.43482      0              0              0            
     30900   863.33006     -32377.357      142.72894     -32234.628      1111.7386      23.496         23.496         102.45686      0              0              0            
     31000   837.96002     -32370.337      138.53467     -32231.802      2856.8673      23.496         23.496         102.06989      0              0              0            
     31100   843.71797     -32373.442      139.4866      -32233.956      1842.3532      23.496         23.496         101.73187      0              0              0            
     31200   865.51444     -32375.564      143.09007     -32232.474      1742.4209      23.496         23.496         101.44075      0              0              0            
     31300   827.39965     -32369.696      136.78879     -32232.907      1938.4405      23.496         23.496         102.48275      0              0              0            
     31400   833.15064     -32370.3        137.73957     -32232.561      875.12612      23.496         23.496         102.83395      0              0              0            
     31500   833.78969     -32369.298      137.84522     -32231.453      1413.0249      23.496         23.496         102.15982      0              0              0            
     31600   863.63308     -32375.154      142.77904     -32232.375      2458.0969      23.496         23.496         101.62083      0              0              0            
     31700   858.99851     -32375.581      142.01283     -32233.568      1332.6173      23.496         23.496         102.10643      0              0              0            
     31800   842.83046     -32372.977      139.33987     -32233.637      1416.864       23.496         23.496         102.28727      0              0              0            
     31900   834.24055     -32371.587      137.91976     -32233.667      1927.3731      23.496         23.496         102.12114      0              0              0            
     32000   847.30509     -32374.04       140.07963     -32233.961      1299.572       23.496         23.496         101.83643      0              0              0            
     32100   853.01543     -32370.327      141.02369     -32229.303      2617.9848      23.496         23.496         101.4165       0              0              0            
     32200   840.38782     -32368.187      138.93605     -32229.251      2107.2019      23.496         23.496         101.75263      0              0              0            
     32300   854.6153      -32370.2        141.28819     -32228.912      1149.1035      23.496         23.496         102.21139      0              0              0            
     32400   839.26692     -32372.848      138.75073     -32234.097      950.29706      23.496         23.496         101.58763      0              0              0            
     32500   861.35        -32373.187      142.40159     -32230.786      1170.299       23.496         23.496         101.36543      0              0              0            
     32600   844.4559      -32369.802      139.6086      -32230.193      1256.1642      23.496         23.496         101.8224       0              0              0            
     32700   850.31916     -32370.214      140.57793     -32229.636      1372.824       23.496         23.496         101.95706      0              0              0            
     32800   835.75799     -32367.085      138.17062     -32228.914      2479.0107      23.496         23.496         101.83227      0              0              0            
     32900   861.52319     -32374.342      142.43022     -32231.912      1669.0224      23.496         23.496         101.97223      0              0              0            
     33000   853.24785     -32373.516      141.06211     -32232.454      1159.5282      23.496         23.496         102.13621      0              0              0            
     33100   837.98006     -32373.801      138.53799     -32235.263      892.85857      23.496         23.496         102.29106      0              0              0            
     33200   826.27459     -32375.789      136.60279     -32239.186      2263.1473      23.496         23.496         102.08879      0              0              0            
     33300   789.14619     -32372.636      130.46459     -32242.172      1710.8135      23.496         23.496         102.2622       0              0              0            
     33400   817.27565     -32375.818      135.11506     -32240.703      1483.8683      23.496         23.496         102.34098      0              0              0            
     33500   827.02947     -32379.331      136.72759     -32242.603      2286.1737      23.496         23.496         101.74713      0              0              0            
     33600   839.62494     -32378.178      138.80992     -32239.368      1372.8244      23.496         23.496         101.77141      0              0              0            
     33700   799.73725     -32372.808      132.21554     -32240.593      1457.9511      23.496         23.496         101.73511      0              0              0            
     33800   840.03838     -32378.599      138.87827     -32239.721      1590.655       23.496         23.496         101.75228      0              0              0            
     33900   836.43963     -32380.164      138.28332     -32241.881      599.90763      23.496         23.496         102.37313      0              0              0            
     34000   816.62736     -32372.631      135.00788     -32237.624      1393.9407      23.496         23.496         102.80078      0              0              0            
     34100   827.35805     -32373.059      136.78191     -32236.277      1384.1523      23.496         23.496         102.73663      0              0              0            
     34200   829.69387     -32374.039      137.16808     -32236.871      1531.4838      23.496         23.496         102.59084      0              0              0            
     34300   822.14501     -32374.771      135.92008     -32238.851      1352.2811      23.496         23.496         102.60117      0              0              0            
     34400   805.17994     -32371.488      133.11535     -32238.373      2026.2037      23.496         23.496         103.17557      0              0              0            
     34500   786.02805     -32372.28       129.94909     -32242.331      654.69367      23.496         23.496         103.3439       0              0              0            
     34600   824.35492     -32376.295      136.28543     -32240.009      1778.8381      23.496         23.496         102.86638      0              0              0            
     34700   809.76582     -32372.894      133.8735      -32239.02       1540.1881      23.496         23.496         103.01481      0              0              0            
     34800   824.59478     -32375.393      136.32508     -32239.068      1215.7694      23.496         23.496         102.84337      0              0              0            
     34900   844.2965      -32377.819      139.58224     -32238.237      2677.46        23.496         23.496         101.92651      0              0              0            
     35000   823.63774     -32376.136      136.16686     -32239.969      209.81714      23.496         23.496         102.85831      0              0              0            
     35100   802.13971     -32369.918      132.61272     -32237.305      86.805739      23.496         23.496         103.33256      0              0              0            
     35200   826.75395     -32372.091      136.68204     -32235.409      1233.2029      23.496         23.496         102.5371       0              0              0            
     35300   840.57939     -32373.669      138.96772     -32234.701      2798.2404      23.496         23.496         101.67507      0              0              0            
     35400   818.17977     -32369.232      135.26453     -32233.967      1488.3589      23.496         23.496         102.52152      0              0              0            
     35500   846.86363     -32374.826      140.00665     -32234.819      1389.8647      23.496         23.496         102.95816      0              0              0            
     35600   827.24005     -32373.311      136.76241     -32236.549      1834.7957      23.496         23.496         102.44297      0              0              0            
     35700   868.77604     -32376.041      143.62929     -32232.412      2230.0938      23.496         23.496         101.76231      0              0              0            
     35800   861.28147     -32373.556      142.39026     -32231.166      1163.7764      23.496         23.496         102.00948      0              0              0            
     35900   855.01553     -32371.901      141.35435     -32230.547      2044.9958      23.496         23.496         102.16264      0              0              0            
     36000   836.53151     -32369.167      138.29851     -32230.869      1118.5678      23.496         23.496         102.17145      0              0              0            
     36100   849.45951     -32371.642      140.43581     -32231.206      1680.5628      23.496         23.496         102.28111      0              0              0            
     36200   837.56545     -32368.464      138.46944     -32229.994      2544.4369      23.496         23.496         101.92849      0              0              0            
     36300   867.28427     -32371.595      143.38267     -32228.212      1315.4224      23.496         23.496         102.05773      0              0              0            
     36400   870.33834     -32371.408      143.88758     -32227.52       1322.6476      23.496         23.496         102.62375      0              0              0            
     36500   856.62419     -32367.884      141.6203      -32226.264      1299.2739      23.496         23.496         102.2449       0              0              0            
     36600   871.96411     -32369.724      144.15636     -32225.567      3167.5235      23.496         23.496         101.7861       0              0              0            
     36700   864.68914     -32369.1        142.95363     -32226.146      798.88638      23.496         23.496         102.80586      0              0              0            
     36800   857.97198     -32367.199      141.84312     -32225.356      1026.7525      23.496         23.496         102.91458      0              0              0            
     36900   851.35376     -32362.889      140.74898     -32222.14       3312.5714      23.496         23.496         102.20897      0              0              0            
     37000   854.26856     -32359.306      141.23086     -32218.075      1545.8568      23.496         23.496         102.53188      0              0              0            
     37100   880.95306     -32365.361      145.64244     -32219.718      1341.3656      23.496         23.496         102.6921       0              0              0            
     37200   852.91979     -32363.069      141.00788     -32222.061      645.83004      23.496         23.496         102.7211       0              0              0            
     37300   872.22937     -32367.299      144.20021     -32223.099      1523.8293      23.496         23.496         102.1018       0              0              0            
     37400   893.17155     -32373.169      147.66245     -32225.507      1026.0202      23.496         23.496         102.04792      0              0              0            
     37500   872.1015      -32370.97       144.17907     -32226.791      1608.9083      23.496         23.496         102.00402      0              0              0            
     37600   863.83958     -32372.86       142.81318     -32230.047      1896.6786      23.496         23.496         101.21963      0              0              0            
     37700   882.4296      -32378.353      145.88655     -32232.467      2036.3541      23.496         23.496         101.41347      0              0              0            
     37800   838.6365      -32370.234      138.64651     -32231.588      1750.3197      23.496         23.496         101.72327      0              0              0            
     37900   836.87057     -32370.087      138.35456     -32231.732      1748.7801      23.496         23.496         101.43371      0              0              0            
     38000   833.62519     -32368.961      137.81802     -32231.143      2206.4293      23.496         23.496         101.16875      0              0              0            
     38100   878.62915     -32379.084      145.25824     -32233.826      1814.1858      23.496         23.496         100.85183      0              0              0            
     38200   852.60236     -32373.87       140.9554      -32232.915      1348.4551      23.496         23.496         101.19316      0              0              0            
     38300   824.14545     -32370.22       136.2508      -32233.969      951.61983      23.496         23.496         101.60732      0              0              0            
     38400   850.89453     -32374.566      140.67305     -32233.893      2848.4823      23.496         23.496         100.91345      0              0              0            
     38500   865.53358     -32374.702      143.09324     -32231.609      2305.4965      23.496         23.496         101.76129      0              0              0            
     38600   842.00866     -32371.629      139.20401     -32232.425      788.41217      23.496         23.496         102.82705      0              0              0            
     38700   853.44021     -32370.856      141.09392     -32229.762      1536.7837      23.496         23.496         102.54785      0              0              0            
     38800   856.55648     -32372.289      141.60911     -32230.679      1557.2515      23.496         23.496         102.27655      0              0              0            
     38900   851.74903     -32368.136      140.81432     -32227.322      1536.3852      23.496         23.496         102.65043      0              0              0            
     39000   852.4565      -32368.59       140.93128     -32227.659      1105.6156      23.496         23.496         102.74987      0              0              0            
     39100   875.47391     -32371.662      144.73661     -32226.925      1848.0406      23.496         23.496         102.70656      0              0              0            
     39200   852.81161     -32369.035      140.98999     -32228.045      1662.2857      23.496         23.496         103.15994      0              0              0            
     39300   848.78647     -32364.492      140.32454     -32224.168      2186.1777      23.496         23.496         103.22416      0              0              0            
     39400   855.87287     -32365.558      141.49609     -32224.062      1062.8801      23.496         23.496         103.54482      0              0              0            
     39500   847.69793     -32360.311      140.14458     -32220.167      1311.3557      23.496         23.496         103.39109      0              0              0            
     39600   879.66733     -32365.805      145.42988     -32220.376      2157.0575      23.496         23.496         102.78868      0              0              0            
     39700   852.95819     -32364.301      141.01423     -32223.287      1254.0218      23.496         23.496         103.79969      0              0              0            
     39800   865.92211     -32367.129      143.15747     -32223.972      704.01316      23.496         23.496         104.22736      0              0              0            
     39900   858.58834     -32364.392      141.94502     -32222.447      2330.4372      23.496         23.496         103.10177      0              0              0            
     40000   856.81288     -32363.133      141.6515      -32221.482      769.01458      23.496         23.496         103.53635      0              0              0            
     40100   864.62336     -32363.866      142.94275     -32220.923      1391.8792      23.496         23.496         104.0463       0              0              0            
     40200   854.35997     -32361.907      141.24597     -32220.661      1219.4701      23.496         23.496         103.26837      0              0              0            
     40300   873.68554     -32366.686      144.44095     -32222.245      2054.0832      23.496         23.496         102.30271      0              0              0            
     40400   839.87337     -32362.707      138.85099     -32223.856      1375.5496      23.496         23.496         102.62901      0              0              0            
     40500   852.26575     -32368.754      140.89975     -32227.854      1545.0003      23.496         23.496         102.88336      0              0              0            
     40600   844.84591     -32368.157      139.67307     -32228.484      1596.1406      23.496         23.496         102.74146      0              0              0            
     40700   862.27467     -32370.122      142.55446     -32227.568      1439.4847      23.496         23.496         102.25116      0              0              0            
     40800   865.58494     -32371.096      143.10173     -32227.994      2011.0237      23.496         23.496         102.34163      0              0              0            
     40900   852.50451     -32368.403      140.93922     -32227.463      1313.2314      23.496         23.496         102.69921      0              0              0            
     41000   853.33422     -32368.676      141.07639     -32227.599      1852.8643      23.496         23.496         102.4616       0              0              0            
     41100   848.20416     -32364.391      140.22827     -32224.163      1422.7928      23.496         23.496         102.7621       0              0              0            
     41200   852.84442     -32367.79       140.99542     -32226.794      1882.466       23.496         23.496         102.38872      0              0              0            
     41300   840.25364     -32367.047      138.91386     -32228.133      1590.4176      23.496         23.496         102.2447       0              0              0            
     41400   867.6607      -32370.787      143.4449      -32227.342      1738.6383      23.496         23.496         102.25115      0              0              0            
     41500   877.70074     -32369.181      145.10476     -32224.076      1868.4179      23.496         23.496         102.65643      0              0              0            
     41600   869.978       -32366.85       143.828       -32223.022      468.77478      23.496         23.496         103.10365      0              0              0            
     41700   872.24434     -32367.875      144.20268     -32223.673      2354.471       23.496         23.496         102.41974      0              0              0            
     41800   855.87224     -32365.663      141.49599     -32224.167      798.74679      23.496         23.496         102.9715       0              0              0            
     41900   870.44431     -32369.529      143.9051      -32225.624      346.76228      23.496         23.496         103.56793      0              0              0            
     42000   866.05517     -32370.381      143.17947     -32227.202      679.17524      23.496         23.496         102.98816      0              0              0            
     42100   855.28184     -32368.326      141.39838     -32226.928      2274.3495      23.496         23.496         102.8597       0              0              0            
[...]
   1656700   844.29081     -32444.143      139.5813      -32304.562      3558.4573      23.496         23.496         96.478048      0              0              0            
   1656800   861.77696     -32442.27       142.47218     -32299.798      4381.8017      23.496         23.496         96.417928      0              0              0            
   1656900   821.9865      -32436.321      135.89387     -32300.427      2359.3133      23.496         23.496         97.439148      0              0              0            
   1657000   864.17466     -32445.139      142.86857     -32302.27       4220.522       23.496         23.496         96.409853      0              0              0            
   1657100   855.38017     -32445.341      141.41464     -32303.927      3785.3577      23.496         23.496         96.210766      0              0              0            
   1657200   825.342       -32443.445      136.44861     -32306.996      3343.9657      23.496         23.496         96.789045      0              0              0            
   1657300   837.67283     -32441.519      138.48719     -32303.032      4192.1336      23.496         23.496         96.390007      0              0              0            
   1657400   817.62648     -32439.056      135.17306     -32303.883      3648.8768      23.496         23.496         96.600401      0              0              0            
   1657500   825.65349     -32443.636      136.50011     -32307.136      2364.5307      23.496         23.496         97.085356      0              0              0            
   1657600   850.62709     -32445.544      140.62884     -32304.915      3587.4579      23.496         23.496         96.404885      0              0              0            
   1657700   837.99509     -32441.002      138.54047     -32302.462      3311.9781      23.496         23.496         96.732977      0              0              0            
   1657800   847.27281     -32441.3        140.0743      -32301.226      2916.6254      23.496         23.496         97.191305      0              0              0            
   1657900   846.14467     -32442.29       139.88779     -32302.403      3602.0473      23.496         23.496         96.827888      0              0              0            
   1658000   835.37745     -32442.428      138.10771     -32304.321      3614.8867      23.496         23.496         96.507517      0              0              0            
   1658100   801.99376     -32439.19       132.5886      -32306.601      2439.9144      23.496         23.496         97.00644       0              0              0            
   1658200   843.5398      -32444.802      139.45714     -32305.345      3777.5131      23.496         23.496         96.385812      0              0              0            
   1658300   830.83797     -32440.637      137.35723     -32303.28       4757.9615      23.496         23.496         96.329462      0              0              0            
   1658400   837.70192     -32442.003      138.492       -32303.511      2313.0341      23.496         23.496         97.160562      0              0              0            
   1658500   850.93379     -32442.418      140.67954     -32301.738      3373.3259      23.496         23.496         96.547088      0              0              0            
   1658600   851.78387     -32439.611      140.82008     -32298.79       4324.0969      23.496         23.496         96.108176      0              0              0            
   1658700   863.04743     -32440.996      142.68222     -32298.314      2557.8417      23.496         23.496         97.072605      0              0              0            
   1658800   840.46386     -32440.157      138.94862     -32301.208      3358.5789      23.496         23.496         96.647434      0              0              0            
   1658900   883.89073     -32442.579      146.12811     -32296.451      4762.9331      23.496         23.496         96.162668      0              0              0            
   1659000   845.64116     -32436.493      139.80455     -32296.689      2853.9634      23.496         23.496         96.924132      0              0              0            
   1659100   839.67079     -32437.232      138.8175      -32298.415      4416.2418      23.496         23.496         96.478323      0              0              0            
   1659200   859.61786     -32442.94       142.11523     -32300.824      4001.1205      23.496         23.496         96.478234      0              0              0            
   1659300   845.03407     -32441.802      139.70418     -32302.097      2749.8595      23.496         23.496         96.919859      0              0              0            
   1659400   823.75057     -32441.432      136.18551     -32305.246      3709.1523      23.496         23.496         96.313108      0              0              0            
   1659500   818.31527     -32441.49       135.28693     -32306.203      3246.4897      23.496         23.496         96.457482      0              0              0            
   1659600   835.34726     -32445.636      138.10272     -32307.534      2922.0706      23.496         23.496         96.724574      0              0              0            
   1659700   838.13924     -32444.366      138.5643      -32305.802      4229.7934      23.496         23.496         96.317647      0              0              0            
   1659800   853.85448     -32446.677      141.1624      -32305.514      2831.9734      23.496         23.496         96.783282      0              0              0            
   1659900   845.18752     -32447.438      139.72955     -32307.708      4433.5995      23.496         23.496         96.204549      0              0              0            
   1660000   799.82278     -32438.262      132.22968     -32306.032      4544.07        23.496         23.496         96.280561      0              0              0            
   1660100   827.32986     -32439.722      136.77725     -32302.945      2794.2744      23.496         23.496         96.935082      0              0              0            
   1660200   873.79137     -32447.375      144.45844     -32302.916      3161.0676      23.496         23.496         96.497852      0              0              0            
   1660300   855.90023     -32441.604      141.50061     -32300.103      3902.4155      23.496         23.496         96.754984      0              0              0            
   1660400   855.23851     -32443.812      141.39122     -32302.42       3064.262       23.496         23.496         96.933768      0              0              0            
   1660500   849.75527     -32443.383      140.48471     -32302.898      4141.7985      23.496         23.496         96.428761      0              0              0            
   1660600   815.22528     -32441.798      134.77608     -32307.022      2158.5263      23.496         23.496         97.142291      0              0              0            
   1660700   867.90819     -32446.197      143.48581     -32302.711      3534.0423      23.496         23.496         96.939531      0              0              0            
   1660800   846.61223     -32443.088      139.96509     -32303.123      3474.1934      23.496         23.496         96.250176      0              0              0            
   1660900   804.81162     -32439.964      133.05446     -32306.91       3660.1011      23.496         23.496         96.326403      0              0              0            
   1661000   860.28071     -32447.071      142.22481     -32304.846      3572.4131      23.496         23.496         96.518124      0              0              0            
   1661100   851.09009     -32443.763      140.70538     -32303.058      3942.5726      23.496         23.496         96.469478      0              0              0            
   1661200   849.16526     -32441.78       140.38717     -32301.393      3169.8336      23.496         23.496         96.766157      0              0              0            
   1661300   840.51383     -32441.212      138.95688     -32302.255      3435.5744      23.496         23.496         96.643346      0              0              0            
   1661400   872.88512     -32446.174      144.30862     -32301.866      3298.5659      23.496         23.496         96.643541      0              0              0            
   1661500   843.26692     -32439.246      139.41203     -32299.834      3918.2711      23.496         23.496         96.83208       0              0              0            
   1661600   837.07872     -32437.154      138.38897     -32298.765      3463.7569      23.496         23.496         96.864569      0              0              0            
   1661700   844.34326     -32441.426      139.58997     -32301.836      3453.5659      23.496         23.496         96.730231      0              0              0            
   1661800   837.80352     -32440.64       138.5088      -32302.132      3913.5011      23.496         23.496         96.449216      0              0              0            
   1661900   850.09001     -32442.032      140.54005     -32301.492      3841.316       23.496         23.496         96.659453      0              0              0            
   1662000   843.8046      -32438.537      139.50092     -32299.036      2706.2377      23.496         23.496         97.138609      0              0              0            
   1662100   831.24635     -32440.584      137.42474     -32303.16       3551.3128      23.496         23.496         96.768106      0              0              0            
   1662200   854.87203     -32445.961      141.33063     -32304.63       4186.419       23.496         23.496         96.374438      0              0              0            
   1662300   839.83519     -32443.259      138.84468     -32304.414      2525.9841      23.496         23.496         97.11998       0              0              0            
   1662400   831.38014     -32444.768      137.44686     -32307.321      3745.8035      23.496         23.496         96.468887      0              0              0            
   1662500   816.09812     -32442.901      134.92038     -32307.98       4380.7562      23.496         23.496         96.04625       0              0              0            
   1662600   837.76113     -32447.431      138.50179     -32308.929      2544.6494      23.496         23.496         97.084752      0              0              0            
   1662700   805.6388      -32442.271      133.19121     -32309.08       3171.9072      23.496         23.496         96.899893      0              0              0            
   1662800   849.98991     -32448.77       140.5235      -32308.247      4271.0604      23.496         23.496         95.895224      0              0              0            
   1662900   837.86943     -32446.066      138.5197      -32307.546      2737.0582      23.496         23.496         96.826247      0              0              0            
   1663000   825.9477      -32444.912      136.54875     -32308.363      2787.1615      23.496         23.496         96.816912      0              0              0            
   1663100   818.95111     -32442.142      135.39205     -32306.75       3503.2376      23.496         23.496         96.791633      0              0              0            
   1663200   826.90058     -32447.839      136.70629     -32311.133      2477.5623      23.496         23.496         97.022635      0              0              0            
   1663300   832.1784      -32445.535      137.57883     -32307.956      4255.8829      23.496         23.496         96.432778      0              0              0            
   1663400   828.15736     -32444.685      136.91406     -32307.771      2762.1781      23.496         23.496         97.169764      0              0              0            
   1663500   812.3021      -32441.994      134.29281     -32307.701      3718.9529      23.496         23.496         96.688706      0              0              0            
   1663600   829.00355     -32444.843      137.05396     -32307.789      3806.504       23.496         23.496         96.287664      0              0              0            
   1663700   811.27588     -32440.923      134.12315     -32306.8        2993.5307      23.496         23.496         96.733368      0              0              0            
   1663800   827.86068     -32441.036      136.86501     -32304.171      2995.781       23.496         23.496         96.803576      0              0              0            
   1663900   852.05109     -32443.715      140.86426     -32302.851      3377.2405      23.496         23.496         96.574096      0              0              0            
   1664000   843.93365     -32442.358      139.52226     -32302.836      3363.1768      23.496         23.496         96.890261      0              0              0            
   1664100   889.2694      -32447.536      147.01733     -32300.519      3451.6869      23.496         23.496         96.632912      0              0              0            
   1664200   842.97602     -32438.422      139.36394     -32299.058      3172.4493      23.496         23.496         96.899341      0              0              0            
   1664300   854.95887     -32439.925      141.34499     -32298.58       4434.8495      23.496         23.496         96.647976      0              0              0            
   1664400   869.24926     -32442.86       143.70753     -32299.153      2642.0633      23.496         23.496         96.866281      0              0              0            
   1664500   861.78573     -32441.908      142.47363     -32299.435      3172.4418      23.496         23.496         96.895465      0              0              0            
   1664600   881.31489     -32442.887      145.70226     -32297.185      4359.7565      23.496         23.496         96.458237      0              0              0            
   1664700   851.46889     -32440.38       140.76801     -32299.612      3169.3688      23.496         23.496         96.868249      0              0              0            
   1664800   862.77291     -32440.887      142.63683     -32298.251      3676.0848      23.496         23.496         96.726063      0              0              0            
   1664900   846.93674     -32441.196      140.01874     -32301.177      4132.4255      23.496         23.496         96.117136      0              0              0            
   1665000   849.25475     -32440.183      140.40196     -32299.781      3880.2736      23.496         23.496         96.456621      0              0              0            
   1665100   823.99149     -32436.891      136.22534     -32300.666      2104.0946      23.496         23.496         97.337235      0              0              0            
   1665200   847.64605     -32441.289      140.136       -32301.153      4004.7852      23.496         23.496         96.526102      0              0              0            
   1665300   845.9875      -32444.42       139.86181     -32304.558      4448.9695      23.496         23.496         96.422727      0              0              0            
   1665400   789.91971     -32436.688      130.59247     -32306.095      3896.1326      23.496         23.496         97.135334      0              0              0            
   1665500   848.51496     -32446          140.27965     -32305.721      3470.3862      23.496         23.496         96.426179      0              0              0            
   1665600   855.98193     -32445.872      141.51412     -32304.358      4205.7719      23.496         23.496         96.300252      0              0              0            
   1665700   814.8502      -32437.35       134.71407     -32302.636      3341.6814      23.496         23.496         97.151126      0              0              0            
   1665800   854.59018     -32440.74       141.28403     -32299.456      3350.3479      23.496         23.496         96.95181       0              0              0            
   1665900   834.94767     -32439.692      138.03666     -32301.656      3544.004       23.496         23.496         96.788101      0              0              0            
   1666000   846.39238     -32441.094      139.92874     -32301.165      3670.1069      23.496         23.496         96.826674      0              0              0            
   1666100   849.02247     -32443.881      140.36356     -32303.517      2335.9099      23.496         23.496         96.657053      0              0              0            
   1666200   844.52134     -32446.427      139.61941     -32306.808      3217.2819      23.496         23.496         96.649727      0              0              0            
   1666300   819.23716     -32445.093      135.43934     -32309.653      2990.3426      23.496         23.496         96.699673      0              0              0            
   1666400   835.69876     -32446.962      138.16083     -32308.801      4189.4382      23.496         23.496         96.036995      0              0              0            
   1666500   814.71383     -32442.468      134.69153     -32307.777      4232.0599      23.496         23.496         96.324089      0              0              0            
   1666600   835.26201     -32443.727      138.08863     -32305.638      3411.9999      23.496         23.496         96.981707      0              0              0            
   1666700   830.40394     -32441.064      137.28547     -32303.779      3551.8916      23.496         23.496         96.642857      0              0              0            
   1666800   844.03886     -32444.854      139.53965     -32305.314      4143.748       23.496         23.496         96.448312      0              0              0            
   1666900   809.62698     -32443.849      133.85055     -32309.999      3447.6002      23.496         23.496         96.812491      0              0              0            
   1667000   821.5043      -32445.092      135.81415     -32309.278      2693.9738      23.496         23.496         97.276286      0              0              0            
   1667100   825.3811      -32444.781      136.45508     -32308.326      3529.2816      23.496         23.496         96.600578      0              0              0            
   1667200   839.65525     -32445.369      138.81493     -32306.554      3783.621       23.496         23.496         96.60321       0              0              0            
   1667300   810.10381     -32441.602      133.92938     -32307.673      3088.496       23.496         23.496         96.939055      0              0              0            
   1667400   819.33059     -32443.111      135.45479     -32307.656      3680.7654      23.496         23.496         96.600981      0              0              0            
   1667500   854.31267     -32448.851      141.23815     -32307.613      2585.4031      23.496         23.496         96.626631      0              0              0            
   1667600   784.13587     -32440.473      129.63626     -32310.837      3440.3762      23.496         23.496         96.530681      0              0              0            
   1667700   809.817       -32446.022      133.88196     -32312.14       3081.9898      23.496         23.496         96.567155      0              0              0            
   1667800   846.17406     -32446.715      139.89265     -32306.822      4379.1454      23.496         23.496         96.185777      0              0              0            
   1667900   825.36156     -32442.