LAMMPS data file via write_data, version 29 Aug 2024, timestep = 99, units = metal

5184 atoms
5 atom types

-0.5385620434932782 52.50036204349331 xlo xhi
-0.4664084111792387 45.466647237545466 ylo yhi
-0.49141773149805257 47.904617731498085 zlo zhi
-26.519462043493256 0 0 xy xz yz

Masses

1 12.011
2 1.007
3 126.905
4 14.0061
5 207.2

Atoms # atomic

434 2 0.5382791836922437 3.326219545334562 1.209253879275271 0 0 0
2595 3 1.6277350813526046 0.7556417304519117 1.420330608373281 0 0 0
4753 5 52.351364235961626 -0.4481689599440655 -0.48294839366328945 -1 0 0
438 2 3.9861552156255122 1.778101544941963 3.131850682764201 0 0 0
2593 3 6.0112877808783445 0.8349229910532515 1.4972438233079015 0 0 0
4825 5 8.152260830139516 -0.448168959944064 -0.48294839366328773 0 0 0
794 2 9.37809986485666 3.326219545334565 1.2092538792752723 0 0 0
2811 3 10.467555762517032 0.7556417304519157 1.4203306083732816 0 0 0
798 2 12.825975896789949 1.7781015449419622 3.1318506827642025 0 0 0
2809 3 14.851108462042756 0.8349229910532577 1.4972438233079062 0 0 0
1154 2 18.217920546021087 3.3262195453345607 1.2092538792752632 0 0 0
3027 3 19.307376443681463 0.7556417304519135 1.4203306083732843 0 0 0
4897 5 16.992081511303933 -0.44816895994406547 -0.48294839366328735 0 0 0
1158 2 21.665796577954374 1.7781015449419644 3.1318506827642025 0 0 0
1514 2 27.057741227185563 3.3262195453345798 1.2092538792752578 0 0 0
3025 3 23.690929143207185 0.8349229910532524 1.4972438233079062 0 0 0
4969 5 25.831902192468352 -0.44816895994406547 -0.48294839366328945 0 0 0
1518 2 30.50561725911878 1.778101544941964 3.1318506827642 0 0 0
3243 3 28.147197124845906 0.7556417304519157 1.4203306083732745 0 0 0
3241 3 32.53074982437164 0.8349229910532688 1.497243823307914 0 0 0
1874 2 35.897561908349964 3.3262195453345695 1.2092538792752663 0 0 0
3459 3 36.987017806010314 0.7556417304518993 1.420330608373283 0 0 0
5041 5 34.67172287363276 -0.4481689599440652 -0.48294839366328907 0 0 0
1878 2 39.345437940283205 1.7781015449419688 3.1318506827641923 0 0 0
3457 3 41.37057050553607 0.8349229910532653 1.4972438233079095 0 0 0
2234 2 44.737382589514354 3.3262195453345633 1.209253879275271 0 0 0
5113 5 43.51154355479719 -0.4481689599440639 -0.48294839366329523 0 0 0
2238 2 48.18525862144767 1.7781015449419755 3.131850682764195 0 0 0
3675 3 45.82683848717474 0.7556417304519124 1.420330608373285 0 0 0
3673 3 50.210391186700484 0.8349229910532608 1.4972438233079068 0 0 0
4765 5 48.04898721476845 7.206969626433969 -0.4911613790379679 -1 0 0
1 1 -0.728422687008457 4.930474528294492 1.0420386491046334 0 0 0
435 2 0.0565676261176179 4.084856835570962 2.6886506629521305 0 0 0
437 2 -1.270601326051593 5.671364652885173 1.6227466145849712 0 0 0
3889 4 0.01742524556909586 4.06028415030337 1.6818664092985323 0 0 0
3890 4 -0.8635049295093534 4.9775583819239 -0.249047494571307 0 0 0
2594 3 3.9300879487681595 4.710476153507938 1.4057950438358833 0 0 0
4837 5 3.8498838089462994 7.2069696264339855 -0.4911613790379679 0 0 0
73 1 8.111397994155961 4.930474528294496 1.0420386491046298 0 0 0
795 2 8.89638830728204 4.084856835570965 2.688650662952129 0 0 0
797 2 7.56921935511282 5.6713646528851696 1.6227466145849685 0 0 0
4033 4 8.857245926733514 4.0602841503033655 1.681866409298535 0 0 0
4034 4 7.976315751655075 4.977558381923904 -0.249047494571307 0 0 0
2810 3 12.769908629932589 4.710476153507935 1.4057950438358846 0 0 0
4909 5 12.689704490110703 7.2069696264339775 -0.4911613790379679 0 0 0
145 1 16.951218675320394 4.930474528294494 1.0420386491046427 0 0 0
1155 2 17.736208988446503 4.084856835570967 2.688650662952129 0 0 0
1157 2 16.40904003627727 5.671364652885181 1.622746614584984 0 0 0
4177 4 17.697066607897955 4.0602841503033655 1.6818664092985358 0 0 0
4178 4 16.816136432819498 4.977558381923894 -0.2490474945712993 0 0 0
3026 3 21.609729311097023 4.710476153507935 1.4057950438358833 0 0 0
4981 5 21.529525171275157 7.2069696264339775 -0.4911613790379679 0 0 0
217 1 25.791039356484823 4.930474528294491 1.042038649104634 0 0 0
1515 2 26.57602966961095 4.084856835570967 2.688650662952121 0 0 0
1517 2 25.248860717441683 5.671364652885158 1.6227466145849796 0 0 0
4321 4 26.536887289062403 4.060284150303369 1.6818664092985278 0 0 0
4322 4 25.655957113983913 4.977558381923895 -0.24904749457130274 0 0 0
3242 3 30.44954999226148 4.710476153507926 1.405795043835889 0 0 0
5053 5 30.369345852439555 7.2069696264339775 -0.4911613790379679 0 0 0
1877 2 34.08868139860612 5.671364652885164 1.6227466145849698 0 0 0
289 1 34.630860037649256 4.930474528294489 1.0420386491046303 0 0 0
1875 2 35.41585035077538 4.084856835570963 2.688650662952129 0 0 0
4465 4 35.37670797022681 4.060284150303357 1.6818664092985403 0 0 0
4466 4 34.495777795148385 4.977558381923894 -0.24904749457130923 0 0 0
3458 3 39.28937067342586 4.710476153507935 1.4057950438358846 0 0 0
5125 5 39.209166533604105 7.2069696264339775 -0.4911613790379787 0 0 0
361 1 43.470680718813675 4.930474528294492 1.0420386491046367 0 0 0
2235 2 44.255671031939734 4.084856835570956 2.6886506629521376 0 0 0
2237 2 42.92850207977052 5.671364652885161 1.6227466145849698 0 0 0
4609 4 44.21652865139121 4.060284150303364 1.6818664092985376 0 0 0
4610 4 43.33559847631282 4.977558381923895 -0.24904749457131306 0 0 0
3674 3 48.12919135459032 4.7104761535079325 1.405795043835882 0 0 0
494 2 -3.8812972210841354 10.983366023638863 1.2085428363576212 0 0 0
2631 3 -2.759185511006332 8.420600631324367 1.4290347169922224 0 0 0
498 2 -0.42603303394219083 9.436190966785835 3.131815094422428 0 0 0
2629 3 1.6255214594632177 8.476496320577713 1.4855963485053891 0 0 0
854 2 4.958523460080273 10.98336602363887 1.2085428363576232 0 0 0
858 2 8.413787647222216 9.436190966785837 3.131815094422427 0 0 0
2847 3 6.080635170158104 8.420600631324376 1.4290347169922233 0 0 0
2845 3 10.465342140627634 8.476496320577713 1.4855963485053905 0 0 0
1214 2 13.798344141244733 10.983366023638867 1.2085428363576232 0 0 0
3063 3 14.920455851322533 8.420600631324376 1.429034716992216 0 0 0
1218 2 17.253608328386647 9.436190966785837 3.131815094422432 0 0 0
3061 3 19.305162821792067 8.476496320577718 1.4855963485053905 0 0 0
1574 2 22.638164822409127 10.983366023638858 1.2085428363576238 0 0 0
1578 2 26.093429009551066 9.436190966785837 3.1318150944224254 0 0 0
3279 3 23.76027653248697 8.420600631324383 1.429034716992214 0 0 0
3277 3 28.144983502956524 8.476496320577727 1.4855963485053958 0 0 0
1934 2 31.477985503573542 10.983366023638853 1.2085428363576187 0 0 0
3495 3 32.6000972136514 8.420600631324385 1.4290347169922257 0 0 0
1938 2 34.93324969071558 9.436190966785846 3.1318150944224374 0 0 0
3493 3 36.984804184120996 8.47649632057773 1.4855963485053885 0 0 0
2294 2 40.31780618473802 10.983366023638876 1.208542836357612 0 0 0
3711 3 41.439917894815814 8.420600631324389 1.4290347169922344 0 0 0
2298 2 43.77307037187999 9.436190966785828 3.1318150944224294 0 0 0
3709 3 45.82462486528541 8.476496320577713 1.4855963485053878 0 0 0
4777 5 43.629211849654304 14.862609378504056 -0.4911706910787475 -1 0 0
497 2 -5.691264279341248 13.327027995231878 1.622807683921196 0 0 0
13 1 -5.148891996958157 12.586308865960586 1.0420627686507864 0 0 0
495 2 -4.363623323773214 11.740049034561528 2.688747072256583 0 0 0
3913 4 -4.403045129220175 11.7159161013933 1.682055055520138 0 0 0
3914 4 -5.283428749219805 12.633231780603921 -0.24884089315695987 0 0 0
2630 3 -0.4899356241783305 12.366071891820985 1.406185534489517 0 0 0
4849 5 -0.5698915561678383 14.862609378504056 -0.4911706910787475 0 0 0
85 1 3.6909286842062654 12.586308865960591 1.042062768650789 0 0 0
855 2 4.47619735739121 11.740049034561528 2.688747072256586 0 0 0
857 2 3.1485564018231713 13.327027995231894 1.6228076839211978 0 0 0
4057 4 4.436775551944248 11.7159161013933 1.682055055520142 0 0 0
4058 4 3.556391931944617 12.633231780603927 -0.24884089315695263 0 0 0
2846 3 8.349885056986107 12.366071891820985 1.4061855344895204 0 0 0
4921 5 8.269929124996601 14.862609378504056 -0.4911706910787475 0 0 0
157 1 12.53074936537071 12.586308865960586 1.0420627686507937 0 0 0
1217 2 11.988377082987622 13.327027995231884 1.6228076839212 0 0 0
4202 4 12.396212613109054 12.633231780603927 -0.24884089315695515 0 0 0
1215 2 13.316018038555644 11.740049034561528 2.6887470722565845 0 0 0
4201 4 13.276596233108684 11.7159161013933 1.682055055520137 0 0 0
3062 3 17.189705738150522 12.366071891820985 1.4061855344895184 0 0 0
4993 5 17.109749806161012 14.862609378504056 -0.4911706910787475 0 0 0
229 1 21.37057004653513 12.586308865960573 1.042062768650795 0 0 0
1575 2 22.155838719720037 11.740049034561512 2.6887470722565885 0 0 0
1577 2 20.828197764152033 13.327027995231878 1.6228076839212018 0 0 0
4345 4 22.116416914273106 11.715916101393296 1.6820550555201397 0 0 0
4346 4 21.23603329427347 12.633231780603921 -0.24884089315695454 0 0 0
3278 3 26.029526419314983 12.366071891820978 1.406185534489519 0 0 0
5065 5 25.949570487325435 14.862609378504056 -0.4911706910787475 0 0 0
301 1 30.210390727699547 12.586308865960586 1.042062768650791 0 0 0
1937 2 29.668018445316463 13.327027995231884 1.6228076839211916 0 0 0
4490 4 30.075853975437898 12.633231780603909 -0.24884089315695687 0 0 0
1935 2 30.99565940088451 11.740049034561528 2.688747072256582 0 0 0
4489 4 30.956237595437553 11.7159161013933 1.682055055520138 0 0 0
3494 3 34.8693471004794 12.366071891820985 1.406185534489516 0 0 0
5137 5 34.78939116848982 14.862609378504038 -0.4911706910787475 0 0 0
373 1 39.05021140886395 12.586308865960568 1.0420627686508022 0 0 0
2295 2 39.83548008204897 11.740049034561538 2.6887470722565845 0 0 0
2297 2 38.507839126480825 13.327027995231854 1.6228076839211902 0 0 0
4633 4 39.79605827660195 11.715916101393296 1.6820550555201383 0 0 0
4634 4 38.91567465660234 12.633231780603916 -0.24884089315695626 0 0 0
3710 3 43.7091677816438 12.366071891820985 1.4061855344895184 0 0 0
554 2 -8.301201717516856 18.638887789441593 1.2085411325164812 0 0 0
2667 3 -7.179019092778474 16.076209858617844 1.4289467260341204 0 0 0
558 2 -4.845936184295688 17.0917036723611 3.1318145030023303 0 0 0
2665 3 -2.7943491500519153 16.131970884225638 1.48552255966702 0 0 0
914 2 0.5386189636475426 18.638887789441572 1.2085411325164812 0 0 0
2883 3 1.6608015883859624 16.076209858617844 1.4289467260341149 0 0 0
918 2 3.9938844968687333 17.0917036723611 3.131814503002333 0 0 0
2881 3 6.045471531112514 16.131970884225638 1.4855225596670258 0 0 0
1274 2 9.37843964481199 18.638887789441572 1.2085411325164805 0 0 0
3099 3 10.500622269550377 16.076209858617844 1.4289467260341182 0 0 0
1278 2 12.833705178033146 17.0917036723611 3.1318145030023343 0 0 0
3097 3 14.885292212276946 16.131970884225638 1.4855225596670234 0 0 0
1634 2 18.218260325976402 18.638887789441565 1.2085411325164879 0 0 0
3315 3 19.34044295071484 16.076209858617844 1.4289467260341135 0 0 0
1638 2 21.673525859197596 17.09170367236111 3.1318145030023303 0 0 0
1994 2 27.058081007140814 18.638887789441547 1.20854113251647 0 0 0
3313 3 23.725112893441384 16.131970884225655 1.48552255966702 0 0 0
1998 2 30.51334654036205 17.09170367236111 3.131814503002333 0 0 0
3531 3 28.180263631879214 16.076209858617844 1.4289467260341162 0 0 0
3529 3 32.56493357460585 16.131970884225662 1.4855225596670298 0 0 0
2354 2 35.89790168830524 18.638887789441583 1.2085411325164694 0 0 0
3747 3 37.02008431304362 16.076209858617844 1.4289467260341162 0 0 0
2358 2 39.35316722152643 17.09170367236108 3.131814503002329 0 0 0
3745 3 41.40475425577026 16.131970884225638 1.4855225596670234 0 0 0
4789 5 39.209302076836714 22.51812112525378 -0.4911711001782372 -1 0 0
25 1 -9.568807263980391 20.241822869604633 1.0420649044553858 0 0 0
557 2 -10.111179332608577 20.98254076854736 1.6228110743582222 0 0 0
3938 4 -9.70334111473197 20.288747821057868 -0.24883711435508735 0 0 0
555 2 -8.783530994720154 19.395568358771975 2.688747697511179 0 0 0
3937 4 -8.822961865085604 19.371426773946133 1.6820566168480746 0 0 0
2666 3 -4.909848554796467 20.02157512937901 1.4061837849127752 0 0 0
4861 5 -4.989801328985451 22.518121125253806 -0.4911711001782372 0 0 0
97 1 -0.7289865828159555 20.241822869604622 1.0420649044553982 0 0 0
915 2 0.05628968644427246 19.395568358771975 2.688747697511182 0 0 0
917 2 -1.271358651444154 20.982540768547352 1.622811074358224 0 0 0
4081 4 0.016858816078816896 19.371426773946144 1.682056616848072 0 0 0
4082 4 -0.8635204335675343 20.288747821057875 -0.24883711435509595 0 0 0
2882 3 3.929972126367935 20.02157512937901 1.4061837849127745 0 0 0
4933 5 3.8500193521789834 22.518121125253806 -0.4911711001782372 0 0 0
169 1 8.110834098348494 20.241822869604615 1.0420649044553947 0 0 0
1275 2 8.896110367608705 19.395568358771975 2.688747697511182 0 0 0
1277 2 7.568462029720291 20.982540768547334 1.622811074358233 0 0 0
4225 4 8.856679497243256 19.37142677394614 1.6820566168480693 0 0 0
4226 4 7.976300247596892 20.288747821057864 -0.24883711435509662 0 0 0
3098 3 12.769792807532367 20.02157512937901 1.4061837849127745 0 0 0
5005 5 12.68984003334343 22.51812112525378 -0.4911711001782372 0 0 0
241 1 16.950654779512888 20.24182286960463 1.0420649044553947 0 0 0
1635 2 17.735931048773125 19.395568358771975 2.688747697511187 0 0 0
1637 2 16.408282710884695 20.98254076854736 1.6228110743582178 0 0 0
4369 4 17.6965001784077 19.371426773946155 1.6820566168480773 0 0 0
4370 4 16.816120928761347 20.288747821057868 -0.24883711435509198 0 0 0
3314 3 21.609613488696816 20.02157512937901 1.4061837849127752 0 0 0
5077 5 21.529660714507845 22.51812112525378 -0.4911711001782372 0 0 0
313 1 25.790475460677357 20.241822869604633 1.042064904455392 0 0 0
1995 2 26.575751729937586 19.395568358771975 2.6887476975111766 0 0 0
1997 2 25.248103392049153 20.98254076854737 1.6228110743582214 0 0 0
4513 4 26.536320859572122 19.371426773946133 1.6820566168480693 0 0 0
4514 4 25.655941609925776 20.288747821057882 -0.24883711435509054 0 0 0
3530 3 30.4494341698612 20.02157512937901 1.4061837849127725 0 0 0
5149 5 30.369481395672228 22.518121125253806 -0.4911711001782372 0 0 0
2357 2 34.087924073213586 20.98254076854737 1.6228110743582267 0 0 0
385 1 34.63029614184174 20.24182286960464 1.042064904455386 0 0 0
2355 2 35.415572411102 19.395568358771985 2.688747697511171 0 0 0
4657 4 35.37614154073657 19.37142677394615 1.682056616848072 0 0 0
4658 4 34.495762291090166 20.288747821057857 -0.2488371143550844 0 0 0
3746 3 39.28925485102573 20.02157512937901 1.4061837849127778 0 0 0
614 2 -12.721111985599466 26.29439717046955 1.208541114712959 0 0 0
618 2 -9.265846376155988 24.747213137439537 3.131814491312085 0 0 0
2703 3 -11.598928986657278 23.73171881460897 1.4289462339669168 0 0 0
2701 3 -7.214259779892077 23.787478266990792 1.4855225305151096 0 0 0
974 2 -3.881291304435041 26.294397170469548 1.2085411147129534 0 0 0
2919 3 -2.759108305492826 23.73171881460897 1.428946233966918 0 0 0
978 2 -0.4260256949915401 24.747213137439537 3.131814491312085 0 0 0
2917 3 1.625560901272359 23.787478266990792 1.4855225305151116 0 0 0
1334 2 4.958529376729401 26.29439717046955 1.2085411147129577 0 0 0
1338 2 8.413794986172888 24.747213137439523 3.1318144913120882 0 0 0
3135 3 6.0807123756716 23.73171881460897 1.4289462339669219 0 0 0
3133 3 10.465381582436798 23.78747826699078 1.4855225305151103 0 0 0
1694 2 13.798350057893858 26.29439717046955 1.2085411147129606 0 0 0
3351 3 14.92053305683601 23.73171881460897 1.4289462339669232 0 0 0
1698 2 17.25361566733732 24.747213137439537 3.131814491312081 0 0 0
3349 3 19.305202263601174 23.78747826699077 1.4855225305151103 0 0 0
2054 2 22.638170739058253 26.294397170469537 1.2085411147129521 0 0 0
2058 2 26.093436348501736 24.747213137439523 3.131814491312081 0 0 0
3567 3 23.760353738000443 23.73171881460897 1.4289462339669108 0 0 0
3565 3 28.145022944765692 23.787478266990796 1.4855225305151143 0 0 0
2414 2 31.47799142022277 26.294397170469583 1.2085411147129599 0 0 0
3783 3 32.60017441916491 23.73171881460897 1.4289462339669101 0 0 0
2418 2 34.93325702966619 24.747213137439513 3.131814491312087 0 0 0
3781 3 36.98484362593009 23.787478266990792 1.4855225305151167 0 0 0
4801 5 34.78939105004829 30.1736322137364 -0.4911720240136579 -1 0 0
37 1 -13.988717651401961 27.89733215180574 1.0420649415410834 0 0 0
615 2 -13.203441295658116 27.05107770937781 2.6887476985337364 0 0 0
617 2 -14.53108967234845 28.63805015115726 1.6228110899724566 0 0 0
3961 4 -13.242872287334464 27.026935993730266 1.6820566342597294 0 0 0
3962 4 -14.123251544182423 27.944257077706787 -0.24883706932874192 0 0 0
2702 3 -9.329758985867109 27.677085023164594 1.4061837836021962 0 0 0
4873 5 -9.409712355773806 30.1736322137364 -0.4911720240136579 0 0 0
977 2 -5.691268991184031 28.63805015115728 1.622811089972461 0 0 0
109 1 -5.148896970237517 27.897332151805752 1.0420649415410979 0 0 0
975 2 -4.363620614493677 27.05107770937781 2.6887476985337404 0 0 0
4105 4 -4.403051606170041 27.026935993730277 1.682056634259732 0 0 0
4106 4 -5.283430863017954 27.944257077706798 -0.24883706932873403 0 0 0
2918 3 -0.489938304702661 27.677085023164608 1.4061837836022013 0 0 0
4945 5 -0.5698916746093686 30.1736322137364 -0.4911720240136579 0 0 0
181 1 3.690923710926911 27.897332151805752 1.0420649415410914 0 0 0
1335 2 4.476200066670734 27.05107770937781 2.6887476985337364 0 0 0
1337 2 3.1485516899804127 28.63805015115726 1.6228110899724664 0 0 0
4249 4 4.436769074994397 27.02693599373027 1.682056634259728 0 0 0
4250 4 3.5563898181464397 27.944257077706798 -0.24883706932873348 0 0 0
3134 3 8.349882376461778 27.677085023164608 1.4061837836022006 0 0 0
5017 5 8.269929006555042 30.1736322137364 -0.4911720240136579 0 0 0
253 1 12.530744392091332 27.897332151805717 1.0420649415410892 0 0 0
1697 2 11.988372371144806 28.638050151157245 1.6228110899724593 0 0 0
4394 4 12.396210499310861 27.944257077706787 -0.24883706932873603 0 0 0
1695 2 13.316020747835173 27.05107770937781 2.6887476985337377 0 0 0
4393 4 13.27658975615885 27.02693599373027 1.682056634259728 0 0 0
3350 3 17.18970305762618 27.677085023164597 1.4061837836021962 0 0 0
5089 5 17.109749687719503 30.1736322137364 -0.4911720240136579 0 0 0
325 1 21.370565073255747 27.897332151805728 1.0420649415410905 0 0 0
2055 2 22.155841428999643 27.05107770937781 2.6887476985337337 0 0 0
2057 2 20.828193052309235 28.638050151157255 1.6228110899724637 0 0 0
4537 4 22.116410437323275 27.026935993730277 1.682056634259724 0 0 0
4538 4 21.236031180475262 27.944257077706787 -0.24883706932873298 0 0 0
3566 3 26.02952373879066 27.677085023164597 1.4061837836022053 0 0 0
5161 5 25.949570368883915 30.1736322137364 -0.4911720240136579 0 0 0
397 1 30.2103857544202 27.897332151805717 1.0420649415410959 0 0 0
2417 2 29.668013733473693 28.638050151157223 1.62281108997247 0 0 0
4682 4 30.075851861639734 27.944257077706784 -0.2488370693287338 0 0 0
2415 2 30.995662110164062 27.051077709377786 2.6887476985337404 0 0 0
4681 4 30.956231118487715 27.026935993730266 1.6820566342597276 0 0 0
3782 3 34.869344419955006 27.677085023164597 1.406183783602206 0 0 0
674 2 -17.141020223253815 33.94990673708561 1.2085400648841949 0 0 0
678 2 -13.685753939240625 32.402724756750786 3.131812209360626 0 0 0
2739 3 -16.018840854823004 31.38722500287606 1.4289473344135892 0 0 0
2737 3 -11.6341697038812 31.442985750292753 1.4855226530781873 0 0 0
1034 2 -8.3011995420894 33.949906737085634 1.2085400648842024 0 0 0
2955 3 -7.179020173658569 31.38722500287606 1.4289473344135972 0 0 0
1038 2 -4.845933258076189 32.4027247567508 3.1318122093606195 0 0 0
2953 3 -2.7943490227167542 31.442985750292753 1.4855226530781833 0 0 0
1394 2 0.5386211390750199 33.949906737085634 1.2085400648841995 0 0 0
3171 3 1.6608005075058516 31.38722500287606 1.4289473344135946 0 0 0
1398 2 3.993887423088215 32.40272475675078 3.131812209360621 0 0 0
3169 3 6.045471658447679 31.442985750292753 1.4855226530781873 0 0 0
1754 2 9.378441820239484 33.94990673708561 1.2085400648841969 0 0 0
3387 3 10.500621188670252 31.387225002876086 1.4289473344135932 0 0 0
1758 2 12.833708104252675 32.4027247567508 3.131812209360626 0 0 0
3385 3 14.8852923396121 31.442985750292753 1.4855226530781873 0 0 0
2114 2 18.218262501403878 33.94990673708563 1.2085400648841864 0 0 0
3603 3 19.3404418698347 31.387225002876086 1.4289473344135988 0 0 0
2118 2 21.67352878541712 32.40272475675082 3.1318122093606156 0 0 0
2474 2 27.058083182568357 33.94990673708561 1.2085400648841942 0 0 0
3601 3 23.72511302077652 31.442985750292753 1.485522653078182 0 0 0
2478 2 30.51334946658154 32.4027247567508 3.1318122093606338 0 0 0
3819 3 28.180262550999164 31.38722500287606 1.428947334413594 0 0 0
3817 3 32.56493370194103 31.442985750292753 1.4855226530781906 0 0 0
49 1 -18.408634233917883 35.552836838042175 1.0420671060078321 0 0 0
675 2 -17.623356260171462 34.706577830323326 2.6887469900549075 0 0 0
677 2 -18.95101578446215 36.29354981027344 1.6228100199401152 0 0 0
3985 4 -17.66278715999698 34.68244011204233 1.6820565889311112 0 0 0
3986 4 -18.543163790241767 35.5997666860903 -0.2488341439298375 0 0 0
2738 3 -13.749711657044461 35.332666603350795 1.4061394711053083 0 0 0
121 1 -9.568813552753442 35.55283683804219 1.0420671060078466 0 0 0
1037 2 -10.111195103297687 36.29354981027347 1.6228100199401263 0 0 0
4130 4 -9.703343109077354 35.599766686090284 -0.2488341439298316 0 0 0
1035 2 -8.783535579007017 34.706577830323326 2.6887469900549172 0 0 0
4129 4 -8.822966478832575 34.68244011204233 1.6820565889311165 0 0 0
2954 3 -4.909890975880013 35.33266660335076 1.4061394711053 0 0 0
193 1 -0.7289928715890418 35.55283683804217 1.0420671060078393 0 0 0
1395 2 0.05628510215740412 34.706577830323326 2.6887469900549146 0 0 0
1397 2 -1.2713744221332943 36.29354981027344 1.6228100199401165 0 0 0
4273 4 0.016854202331846646 34.682440112042315 1.6820565889311165 0 0 0
4274 4 -0.8635224279129182 35.5997666860903 -0.24883414392983905 0 0 0
3170 3 3.929929705284402 35.33266660335076 1.4061394711052952 0 0 0
265 1 8.110827809575412 35.55283683804216 1.0420671060078393 0 0 0
1755 2 8.896105783321833 34.706577830323326 2.688746990054909 0 0 0
1757 2 7.5684462590311385 36.29354981027342 1.6228100199401219 0 0 0
4417 4 8.856674883496297 34.682440112042315 1.6820565889311103 0 0 0
4418 4 7.976298253251486 35.59976668609026 -0.2488341439298375 0 0 0
3386 3 12.76975038644883 35.33266660335076 1.4061394711052986 0 0 0
337 1 16.950648490739848 35.552836838042175 1.0420671060078301 0 0 0
2115 2 17.7359264644863 34.70657783032333 2.688746990054903 0 0 0
2117 2 16.408266940195606 36.29354981027345 1.6228100199401179 0 0 0
4561 4 17.696495564660708 34.68244011204233 1.682056588931104 0 0 0
4562 4 16.81611893441594 35.5997666860903 -0.24883414392985215 0 0 0
3602 3 21.609571067613242 35.33266660335076 1.4061394711052952 0 0 0
409 1 25.79046917190427 35.55283683804217 1.042067106007838 0 0 0
2475 2 26.57574714565072 34.706577830323326 2.688746990054909 0 0 0
2477 2 25.248087621359986 36.29354981027342 1.6228100199401316 0 0 0
4705 4 26.536316245825137 34.68244011204229 1.6820565889311156 0 0 0
4706 4 25.65593961558036 35.59976668609026 -0.2488341439298239 0 0 0
3818 3 30.449391748777654 35.33266660335076 1.4061394711053 0 0 0
734 2 -21.562077061007237 41.605930721624155 1.207529160566457 0 0 0
2775 3 -20.43912262173449 39.042693310293295 1.428914822826762 0 0 0
4813 5 30.369345539776898 37.82931293007122 -0.491269115608102 -1 0 0
738 2 -18.105378303909482 40.05800384288609 3.131839639222696 0 0 0
1094 2 -12.722256379842793 41.60593072162414 1.2075291605664549 0 0 0
2773 3 -16.054147952671318 39.09855742357421 1.48576502478965 0 0 0
4885 5 -13.829757866045256 37.82931293007122 -0.491269115608102 0 0 0
1098 2 -9.265557622745055 40.058003842886066 3.1318396392226986 0 0 0
2991 3 -11.599301940570069 39.042693310293295 1.4289148228267647 0 0 0
2989 3 -7.21432727150687 39.09855742357421 1.4857650247896483 0 0 0
1454 2 -3.8824356986783597 41.60593072162414 1.2075291605664495 0 0 0
3207 3 -2.759481259405656 39.042693310293295 1.428914822826764 0 0 0
4957 5 -4.989937184880822 37.82931293007122 -0.491269115608102 0 0 0
1458 2 -0.4257369415806337 40.05800384288609 3.1318396392226973 0 0 0
3205 3 1.6254934096575306 39.09855742357421 1.4857650247896483 0 0 0
1814 2 4.957384982486066 41.605930721624155 1.2075291605664489 0 0 0
5029 5 3.8498834962835895 37.82931293007122 -0.491269115608102 0 0 0
1818 2 8.414083739583784 40.058003842886066 3.1318396392227026 0 0 0
3423 3 6.080339421758773 39.042693310293295 1.4289148228267614 0 0 0
3421 3 10.465314090821959 39.09855742357421 1.4857650247896526 0 0 0
2174 2 13.797205663650505 41.60593072162414 1.2075291605664529 0 0 0
3639 3 14.920160102923216 39.042693310293295 1.4289148228267647 0 0 0
5101 5 12.68970417744804 37.82931293007122 -0.491269115608102 0 0 0
2178 2 17.25390442074821 40.058003842886066 3.1318396392227053 0 0 0
3637 3 19.305134771986406 39.09855742357425 1.4857650247896512 0 0 0
2534 2 22.63702634481493 41.605930721624176 1.2075291605664633 0 0 0
5173 5 21.529524858612493 37.82931293007122 -0.491269115608102 0 0 0
2538 2 26.093725101912643 40.058003842886066 3.1318396392226844 0 0 0
3855 3 23.75998078408764 39.042693310293295 1.4289148228267692 0 0 0
3853 3 28.144955453150846 39.09855742357421 1.485765024789645 0 0 0
61 1 -22.83019205016778 43.209075622729024 1.0418986351795572 0 0 0
735 2 -22.04393236097899 42.362449466501594 2.687744706564101 0 0 0
737 2 -23.37225103457279 43.949859485368336 1.62275106624495 0 0 0
4009 4 -22.083639606143993 42.338730756572595 1.6809998965185153 0 0 0
4010 4 -22.965754781578177 43.256591241523694 -0.24907712687368505 0 0 0
2774 3 -18.180843213359722 42.989406005326906 1.4049131550432838 0 0 0
133 1 -13.990371369003343 43.209075622729024 1.0418986351795585 0 0 0
1095 2 -13.20411167981452 42.362449466501594 2.6877447065640956 0 0 0
1097 2 -14.532430353408355 43.94985948536832 1.6227510662449625 0 0 0
4153 4 -13.243818924979553 42.33873075657257 1.6809998965185127 0 0 0
4154 4 -14.125934100413762 43.25659124152371 -0.24907712687367406 0 0 0
2990 3 -9.341022532195286 42.989406005326906 1.4049131550432838 0 0 0
1457 2 -5.692609672243896 43.949859485368336 1.62275106624495 0 0 0
205 1 -5.150550687838908 43.20907562272905 1.0418986351795474 0 0 0
1455 2 -4.36429099865009 42.36244946650156 2.6877447065640943 0 0 0
4297 4 -4.40399824381512 42.33873075657255 1.6809998965185162 0 0 0
4298 4 -5.286113419249296 43.25659124152367 -0.24907712687367578 0 0 0
3206 3 -0.5012018510308486 42.989406005326906 1.4049131550432843 0 0 0
277 1 3.689269993325511 43.209075622729024 1.0418986351795598 0 0 0
1815 2 4.475529682514325 42.36244946650158 2.6877447065640996 0 0 0
1817 2 3.1472110089205083 43.94985948536832 1.6227510662449598 0 0 0
4441 4 4.435822437349295 42.338730756572595 1.6809998965185153 0 0 0
4442 4 3.5537072619151155 43.25659124152371 -0.24907712687367475 0 0 0
3422 3 8.338618830133512 42.989406005326906 1.4049131550432779 0 0 0
349 1 12.52909067448995 43.209075622729024 1.0418986351795667 0 0 0
2177 2 11.987031690084983 43.949859485368336 1.6227510662449545 0 0 0
4586 4 12.39352794307953 43.25659124152369 -0.249077126873678 0 0 0
2175 2 13.315350363678753 42.362449466501594 2.687744706564101 0 0 0
4585 4 13.27564311851372 42.33873075657257 1.680999896518511 0 0 0
3638 3 17.178439511297945 42.989406005326906 1.4049131550432792 0 0 0
421 1 21.36891135565437 43.209075622729024 1.0418986351795625 0 0 0
2535 2 22.155171044843172 42.362449466501616 2.687744706564107 0 0 0
2537 2 20.82685237124937 43.94985948536835 1.6227510662449527 0 0 0
4729 4 22.115463799678146 42.33873075657261 1.680999896518518 0 0 0
4730 4 21.233348624243984 43.25659124152369 -0.24907712687367753 0 0 0
3854 3 26.018260192462428 42.989406005326906 1.4049131550432832 0 0 0
2597 3 -0.5251832499576009 2.107415680719644 5.523537230097835 0 0 0
4754 5 -0.5472605283712378 -0.4369507312248628 3.529290590723156 0 0 0
2 1 3.6647002194687017 2.3710923373665103 5.070122786377436 0 0 0
439 2 4.951820707028383 0.7828928606463054 5.231090522349847 0 0 0
440 2 4.50689675737304 1.5578092118107496 6.709222051592151 0 0 0
441 2 2.934738933033899 3.121715270272795 3.354812287697553 0 0 0
442 2 3.130187362709612 3.1168196586263663 5.651113328941398 0 0 0
3891 4 4.4276888385811475 1.514308626353336 5.704184769377175 0 0 0
3892 4 3.4927591622990493 2.3914014566505837 3.7788538017672364 0 0 0
2813 3 8.314637431206826 2.1074156807196425 5.523537230097834 0 0 0
4826 5 8.292560152793191 -0.4369507312248653 3.529290590723159 0 0 0
74 1 12.504520900633135 2.371092337366508 5.070122786377438 0 0 0
801 2 11.77455961419833 3.1217152702727935 3.354812287697559 0 0 0
802 2 11.97000804387404 3.116819658626362 5.6511133289414 0 0 0
4036 4 12.332579843463481 2.391401456650581 3.7788538017672346 0 0 0
799 2 13.791641388192819 0.7828928606463069 5.231090522349847 0 0 0
800 2 13.346717438537468 1.55780921181075 6.709222051592153 0 0 0
4035 4 13.267509519745577 1.5143086263533383 5.704184769377177 0 0 0
3029 3 17.154458112371238 2.107415680719644 5.523537230097835 0 0 0
4898 5 17.132380833957633 -0.43695073122486755 3.5292905907231615 0 0 0
146 1 21.344341581797558 2.371092337366508 5.070122786377436 0 0 0
1159 2 22.631462069357248 0.7828928606463087 5.231090522349854 0 0 0
1160 2 22.18653811970189 1.55780921181075 6.709222051592153 0 0 0
1161 2 20.614380295362743 3.121715270272792 3.3548122876975563 0 0 0
1162 2 20.809828725038457 3.1168196586263637 5.651113328941397 0 0 0
4179 4 22.107330200910006 1.5143086263533414 5.704184769377177 0 0 0
4180 4 21.172400524627907 2.3914014566505837 3.7788538017672337 0 0 0
3245 3 25.994278793535727 2.107415680719644 5.523537230097835 0 0 0
4970 5 25.972201515122087 -0.4369507312248646 3.5292905907231615 0 0 0
218 1 30.18416226296196 2.371092337366496 5.070122786377438 0 0 0
1521 2 29.45420097652718 3.1217152702728024 3.35481228769755 0 0 0
1522 2 29.649649406202872 3.1168196586263504 5.651113328941395 0 0 0
4324 4 30.012221205792304 2.391401456650569 3.7788538017672337 0 0 0
1519 2 31.47128275052168 0.7828928606463145 5.231090522349851 0 0 0