LAMMPS data file via write_data, version 29 Aug 2024, timestep = 100099, units = metal

5184 atoms
5 atom types

-0.4120955937558861 52.37389559375457 xlo xhi
-0.3690038545372154 45.36924268090292 ylo yhi
-0.017987290532424538 47.4311872905349 zlo zhi
-26.537745872655616 -0.04975795557642992 0.3425733910557718 xy xz yz

Masses

1 12.011
2 1.007
3 126.905
4 14.0061
5 207.2

Atoms # atomic

2595 3 2.4314591588011534 0.2907210963260247 1.8440300824065994 0 0 0
2593 3 6.56623944028611 1.4711675218960079 1.2678356478370438 0 0 0
2811 3 10.987661258364458 0.9137197222044988 1.76514893356496 0 0 0
2809 3 15.071534632174187 0.747022532068216 2.7002980503510217 0 0 0
3027 3 19.499871117161494 1.0736703972759516 2.4044876864501226 0 0 0
4897 5 17.299529184992533 -0.18082275376307883 0.5374379331415982 0 0 0
3025 3 23.443622273954944 0.8628647605368633 1.8760837298370192 0 0 0
3243 3 28.049505589854025 0.7443726824960353 1.933650020742494 0 0 0
3241 3 32.12717942597664 0.8517649876841402 1.4112235990019668 0 0 0
3459 3 36.894189447272296 0.694224162828905 1.4903312228352594 0 0 0
1877 2 34.82976429455204 3.2626496356008805 1.46075259704964 0 0 0
3457 3 41.155994645901814 0.7198931986273747 2.4419649283505755 0 0 0
1931 2 38.76911153732087 1.8563924239279932 0.021230160529012464 0 0 1
5113 5 43.10450826373383 -0.2132746525013366 0.3686765709938308 0 0 0
3675 3 45.722574427233475 1.0785795299019114 2.5331823939633464 0 0 0
2291 2 48.51414937980054 2.1959527912155314 47.36111114526791 0 0 0
3673 3 50.535388766573945 1.4174521545755545 1.5489451303768857 0 0 0
436 2 -0.9497000369058769 6.755435549938 1.6048888229722718 0 0 0
433 2 -1.1609379057146225 5.100752614025104 0.8363462959996105 0 0 0
3890 4 -0.7243588349246833 5.727625661784107 1.505507818430458 0 0 0
434 2 0.025539233142073015 3.2533235434378387 2.038780395217765 0 0 0
435 2 1.1175895152419342 3.9281709867481602 3.2826560504374513 0 0 0
437 2 0.5123259218950975 5.950033742355913 3.1894162017014795 0 0 0
1 1 0.04811547164987823 5.285866543851746 2.439259085543766 0 0 0
3889 4 0.34580530467789405 4.038470836353195 2.62469041433965 0 0 0
2594 3 3.729197071510378 4.768316769495658 2.816203528811116 0 0 0
73 1 7.428614993676598 5.247638801116034 1.977838047308687 0 0 0
4034 4 7.647159160463117 4.549719629709762 0.9316578023786946 0 0 0
4033 4 7.624785217534429 4.7816977396324 3.19882782564692 0 0 0
797 2 7.189486862125 6.310222216157084 1.8969130736042101 0 0 0
796 2 7.413155620602209 4.924113155396381 0.013623787038259921 0 0 0
793 2 7.746396566811441 3.5229715969095943 1.0804453087447656 0 0 0
794 2 7.913652864037992 3.8456502351615427 3.342485794832163 0 0 0
2810 3 12.738182483786964 4.702683883372711 1.783447174932532 0 0 0
1153 2 16.341437718543563 3.1562090771644686 2.8366440936611745 0 0 0
1154 2 16.9749471061069 4.470913975710302 0.6793592894365352 0 0 0
4177 4 17.579978290268294 4.977675981129623 1.2582216183116792 0 0 0
1157 2 18.13576008415587 5.383152101623402 3.1735719423575595 0 0 0
4178 4 17.007417334297887 3.8239295725531095 3.214493843108844 0 0 0
145 1 17.542689020486687 4.797867772451056 2.564928363848161 0 0 0
1155 2 18.077450189123116 5.802111295889329 0.8992560547235191 0 0 0
3026 3 21.556361114683458 5.176464073859202 2.1381877150606443 0 0 0
1514 2 26.420993453169917 5.249833720893137 0.9694219288819261 0 0 0
217 1 26.10047244974692 4.019899920855357 2.5551823749565163 0 0 0
4322 4 26.500308458174306 4.811917970318158 3.5144773490719983 0 0 0
4321 4 25.99860408504417 4.403104235955167 1.286871528665492 0 0 0
1517 2 25.865662300362107 2.9545661941643093 2.835970973686611 0 0 0
1515 2 25.569365406318713 3.7867503677624432 0.6020356795420854 0 0 0
1513 2 26.84501041586568 5.70815158624235 3.2887777253130337 0 0 0
3242 3 29.735345973024867 4.318835557807914 1.9150316393558298 0 0 0
4465 4 33.405621011197816 4.741647230582615 1.6557732748877398 0 0 0
1874 2 33.12507374158736 5.594756691785604 2.1136712230663655 0 0 0
1875 2 32.740459229086674 4.199199657341067 1.1260684892820334 0 0 0
1876 2 36.540728937426294 4.540613790910888 2.377582947458639 0 0 0
289 1 34.64664197149489 4.281957839196161 1.770782726731329 0 0 0
4466 4 35.65428439062057 4.953031362591069 2.1694331259818034 0 0 0
1873 2 35.55407580538465 5.963565802870356 2.404216640068675 0 0 0
3458 3 39.42683692778401 4.423497524821117 1.939505124434653 0 0 0
2234 2 45.13954862647868 3.7021923066491267 2.8432177358959345 0 0 0
2237 2 42.99105578793691 5.689729691701172 3.4195835996706294 0 0 0
361 1 43.69672005270172 5.12976967760349 2.8218576177890147 0 0 0
4609 4 44.401811855572035 4.215474554767012 3.3950812397425265 0 0 0
4610 4 43.598548135546686 5.4519384205137325 1.5605133471170347 0 0 0
2233 2 44.16412834715567 5.0543105943329625 0.8345793729226586 0 0 0
2236 2 42.96911983003956 6.2027917825838115 1.3386833692803806 0 0 0
3674 3 48.02806518577856 4.807656692822302 1.9568673459328054 0 0 0
2631 3 -2.426292505369156 8.901465099767764 2.002199757168647 0 0 0
4765 5 -4.5913447698451835 7.4196612729430225 0.04257859889402169 0 0 0
551 2 0.012706792250265608 9.649600657009827 0.32562261822723926 0 0 1
2629 3 2.0115298099435233 8.512260931744658 2.6478520030860704 0 0 0
4837 5 3.875045499403197 7.392519430570575 0.4954900361906197 0 0 0
2847 3 6.1088477256603735 8.731377691926218 2.213245776613062 0 0 0
911 2 7.618467361972309 10.729661156992789 47.31655484860382 0 0 0
2845 3 10.585665069671052 8.772431860840511 1.947323888866132 0 0 0
3063 3 14.954942390076436 8.919350389142133 2.0056241053482013 0 0 0
4910 5 12.802481886290943 7.350014159073487 3.617203040393119 0 0 0
3061 3 19.777647032879187 9.197572254857738 1.9146243527128777 0 0 0
1271 2 16.81626295759525 9.824983631523256 47.30836491747941 0 0 0
3279 3 23.82718207085225 9.033504724226585 1.842072307097902 0 0 0
3277 3 28.04809991025333 8.268175140159048 1.741487999152412 0 0 0
3495 3 32.47154184859592 8.31646557031167 1.9734101434493738 0 0 0
3493 3 36.594502955076905 8.537119224121508 1.5399998145202525 0 0 0
3711 3 41.33695152875145 8.405479173045865 1.484760055928371 0 0 0
3709 3 46.16228693876464 9.070534201489892 2.089586322444031 0 0 0
3913 4 -5.211825899876892 12.830431459762401 3.240151704092672 0 0 0
496 2 -4.927974031425941 12.192581925672739 0.08918138414444295 0 0 0
13 1 -5.501566995611649 12.451710290430054 2.0169035850754056 0 0 0
493 2 -3.6046030430384524 12.322363393209733 1.204358242739399 0 0 0
3914 4 -4.601637985616877 12.327206028160706 1.076888634190808 0 0 0
2630 3 -0.6350613453792214 12.396662043050199 2.0422861177771554 0 0 0
85 1 3.5296270188204795 12.717616082031165 2.3179938615804305 0 0 0
4057 4 3.9539043646830567 11.67287716157901 3.0423732489075963 0 0 0
854 2 4.7764284288568994 11.896714757266738 3.6211345743540693 0 0 0
855 2 3.53155011557785 10.747557438321836 2.927627837978552 0 0 0
857 2 2.770463711857585 12.573510068722804 1.5563477811813613 0 0 0
2846 3 8.371635048771195 12.522813603401087 1.8752100399296057 0 0 0
1213 2 11.454771081783608 13.029316602872372 3.280113713196746 0 0 0
4202 4 12.193355525290215 13.499411876995197 2.786389139482344 0 0 0
157 1 12.782891534869636 12.978155261959108 1.7308244198747313 0 0 0
1217 2 13.52300001257342 13.61521318630343 1.2472086541279583 0 0 0
4201 4 12.495567392142453 11.843374764619247 1.1274269275178581 0 0 0
1214 2 11.75303426091123 11.264757478775534 1.5252133135361612 0 0 0
3062 3 17.338270837852953 12.676308252971644 1.5541024292861114 0 0 0
1574 2 22.83779155244447 11.284136778896794 2.4497485558470298 0 0 0
1577 2 20.732646422953206 13.318057381683037 2.0108840360329694 0 0 0
229 1 21.35536423215239 12.5229288664851 1.6654623634435883 0 0 0
4345 4 22.15136409248022 12.063649960731702 2.6434026883916686 0 0 0
4346 4 21.356806999865988 12.028227447596585 0.4627112637801657 0 0 0
1573 2 22.038483793140735 11.359614313906011 0.1557483656239538 0 0 0
3278 3 26.142895321962893 12.377928854616108 2.4551475650690424 0 0 0
301 1 30.399285184261075 11.84255172349718 1.5979313002732107 0 0 0
4489 4 30.762101278916457 12.345299571491767 2.810990336039298 0 0 0
1937 2 29.52116985971331 11.158484869374137 1.5883940415838558 0 0 0
1935 2 30.04823159929127 12.46458173091524 3.5352571194850237 0 0 0
4490 4 31.05474178369345 12.091355011813945 0.46168583423950016 0 0 0
1933 2 31.8869254785998 12.741559924753432 0.4353076648493145 0 0 0
1934 2 31.56042067816896 12.842841711451252 2.9739633495418816 0 0 0
3494 3 34.59566149507312 12.696076395951444 1.6375291687079967 0 0 0
2294 2 37.766205416917046 11.781776636433197 1.4925700438283842 0 0 0
4633 4 38.638891740743446 11.299440304640115 1.6608701619110826 0 0 0
2295 2 38.72808618872667 10.341322972364287 1.3027826751046552 0 0 0
2293 2 38.75557648295269 13.867533965387896 2.1933047507313015 0 0 0
2297 2 40.656002071389175 11.461116396727046 2.499300344345702 0 0 0
373 1 39.69883219108525 11.950279540425335 2.1685333990986235 0 0 0
4634 4 39.589342223410576 13.248760066297567 2.391010225050097 0 0 0
3710 3 43.377672988309214 12.488401576109911 2.618473871519375 0 0 0
497 2 -6.531546371340054 12.303368536203129 1.7409946440658195 0 0 0
2667 3 -7.24413548215533 16.304036689907996 2.652956744711177 0 0 0
2665 3 -2.9029869807525457 16.02588969960606 2.445269887878174 0 0 0
611 2 -4.580309735804606 16.680988071170813 47.42227440475226 0 0 0
4849 5 -0.8733971381947749 15.023181652927672 0.39240706822387433 0 0 0
2883 3 1.6516538680562753 16.356285190029027 2.057176396571487 0 0 0
4058 4 4.190141241547144 13.839577151882883 2.35829626189802 0 0 0
853 2 4.937460547129524 14.103463497140426 3.0186262638922345 0 0 0
856 2 3.8406743199410247 14.67071369566597 1.8356648852018054 0 0 0
2881 3 6.277185599466013 16.7497881172756 1.723334131428982 0 0 0
4922 5 8.394078525828418 15.398637347272011 3.6657442647358063 0 0 0
3099 3 10.440638108607628 16.66917137124449 1.7028412421325285 0 0 0
3097 3 14.66938040946998 16.46444614340946 1.4513760790247794 0 0 0
3315 3 19.502147932535017 16.0530372195028 1.2044326747180887 0 0 0
4994 5 17.10123533629387 15.173661199993923 3.5154408378000723 0 0 0
1641 2 20.328815214189756 17.89969432969318 3.679446343846424 0 0 0
3313 3 23.680410277690253 15.946894109139262 2.336603651231825 0 0 0
5065 5 26.2148106738451 14.634583628963082 0.1891945075472036 0 0 0
3531 3 28.127677759388618 15.917167887315244 2.258007760235218 0 0 0
3529 3 32.56976087122914 16.12222910502611 1.9773119434011395 0 0 0
3747 3 37.481642298324324 15.950566909625437 1.6399834522794023 0 0 0
2296 2 40.25527691102589 13.79692261630909 2.8781460133025405 0 0 0
3745 3 41.40660362111608 16.59818496119308 2.2124635603121665 0 0 0
4777 5 43.546513730694265 14.831772214808266 0.41719261698763244 -1 0 0
3938 4 -10.05645170916049 20.19664810461065 1.630963061037297 0 0 0
25 1 -9.080596409462016 19.334468316384687 1.348989456677786 0 0 0
557 2 -9.197017564515885 18.289068789397056 1.7611116989175626 0 0 0
556 2 -10.822329354120539 19.875139604619747 2.202720064931563 0 0 0
3937 4 -8.076629938019305 19.67490349544538 0.6487311319698102 0 0 0
554 2 -7.971830713012547 20.686708365976124 0.4536949246408785 0 0 0
555 2 -7.337087379753702 19.082349345513848 0.43534068335476384 0 0 0
2666 3 -4.665049836004814 19.81701352296796 1.8890977746952744 0 0 0
917 2 -1.782328660099441 19.918218721108367 0.5986829436758697 0 0 0
916 2 -1.946058492193618 19.153690758651003 2.7042239428247052 0 0 0
914 2 1.0801574244479408 20.51608770881588 0.9984565375171923 0 0 0
4082 4 -1.0973051206009417 19.673339827340886 2.4996880225512776 0 0 0
97 1 -0.9429009219621339 20.052376427210827 1.2334180616665666 0 0 0
4081 4 0.1447659399908363 20.51607417578424 0.6549398797140976 0 0 0
913 2 -0.2760401441588628 19.52745144474668 3.0928741414319147 0 0 0
2882 3 3.6561520879166585 19.67954847407806 1.3958071911374474 0 0 0
4225 4 8.100449562290398 20.294907865117974 1.994498867253593 0 0 0
1274 2 7.619206311423573 19.429050188216827 1.7840092116555262 0 0 0
1275 2 8.1807511518732 20.537505935355615 2.9534877798604504 0 0 0
4226 4 9.01285569872936 21.14425499789023 47.423530812470126 0 0 -1
3098 3 12.96527813018735 20.152522880342595 0.5063351789471463 0 0 0
1637 2 16.11309480956696 20.448318550473115 1.526607753993933 0 0 0
1633 2 18.985745617578296 19.94020716537016 1.3091396826786146 0 0 0
241 1 16.94896818475444 19.98108872361806 1.1501070627299632 0 0 0
4370 4 18.094011411581388 20.058244145867462 1.7521129220817655 0 0 0
1636 2 18.158501085614166 20.499170978479427 2.702811004971364 0 0 0
3314 3 21.764684869064887 20.05538440923148 1.2815572077317783 0 0 0
4514 4 25.767335808092707 20.11584536695438 1.0441165300339013 0 0 0
313 1 25.816467294094117 20.335239013134522 2.343020990737749 0 0 0
4513 4 25.598204406877095 19.388465735069953 3.197055772216051 0 0 0
1994 2 25.41453792134241 18.414471951823923 2.9324414609016096 0 0 0
1993 2 25.637932206776643 19.221320890241703 0.6393745876521096 0 0 0
3530 3 30.455026195035984 19.653548070883854 2.195875649437983 0 0 0
4657 4 34.65179926351624 20.14737640099751 2.976670612749796 0 0 0
385 1 34.258515158462856 19.736218829654877 1.8328749562926574 0 0 0
4658 4 34.78486079355743 20.101842246250246 0.7030017821397977 0 0 0
2357 2 33.407231962132556 19.05642543203534 1.8109747892915236 0 0 0
2355 2 34.43181012875203 19.668165274178325 3.847824639952043 0 0 0
3746 3 39.09242226582723 19.607974762516683 2.0339746946816737 0 0 0
2703 3 -11.492178864650718 23.802472308188868 1.6967704549830043 0 0 0
553 2 -10.013274942565939 21.177975717315483 1.3135700239493064 0 0 0
2701 3 -7.141731106563746 23.313721862431162 1.5207983865881676 0 0 0
2919 3 -2.6361711645994697 23.72380839587952 1.5104650077449873 0 0 0
2917 3 1.6401039152355872 23.82871965168289 1.6848457154437975 0 0 0
4934 5 4.202675275567085 22.37119307574784 3.597479386719018 0 0 0
169 1 8.823740700438796 21.05536258806375 1.2020351756409848 0 0 0
1277 2 9.34236636675453 21.831850014971536 1.7481687854609964 0 0 0
3135 3 6.098984240405686 23.601460286820718 1.5892676052803159 0 0 0
3133 3 11.028034485729233 24.21717853273909 0.9335396213426174 0 0 0
5006 5 12.811694868487967 22.465713152010977 2.7822945491646287 0 0 0
3351 3 15.494113853174762 23.443314908595948 1.0525193045394554 0 0 0
3349 3 19.734193845784656 24.03480311821018 1.210620822418097 0 0 0
5078 5 22.048551350874437 22.77376738701233 3.0751038994730187 0 0 0
1996 2 26.034040971330594 20.940961955476727 0.4329906760429532 0 0 0
3567 3 23.914520714836215 23.91620041474839 0.82805036409148 0 0 0
1997 2 25.92416606896007 21.394282800249716 2.6467302316558032 0 0 0
3565 3 27.958707212639112 23.94685180332412 2.1238998386148698 0 0 0
5149 5 30.23565607660577 22.26084387115649 0.3004678287776252 0 0 0
2354 2 35.45619452397679 20.728176266607406 3.103905286432914 0 0 0
2353 2 35.577175481625545 20.738262595802883 0.7326263399001641 0 0 0
3783 3 32.44010558836245 23.637002819319832 2.398785948490922 0 0 0
3781 3 37.05262670319353 23.398675388388824 1.964828303069073 0 0 0
4789 5 39.14287139995742 22.298840337959586 0.13907067542879972 -1 0 0
3961 4 -13.238378649288455 27.04630700091627 0.6319238600203854 0 0 0
37 1 -13.686424274386098 27.58249199548872 1.7327842841657233 0 0 0
616 2 -13.697640288357274 27.366328754890358 3.737814056445005 0 0 0
3962 4 -13.690353866616322 26.89651377174228 2.868625353522971 0 0 0
613 2 -13.3385191275055 25.94946035893743 2.903503989605266 0 0 0
614 2 -12.78870963726236 26.13102616957342 0.52798167926262 0 0 0
2702 3 -9.066869606392716 27.424831024719094 1.6062382465538252 0 0 0
977 2 -5.991467775696698 26.608329001285313 1.216133844902415 0 0 0
109 1 -5.270459022012276 27.37539191000257 1.5085885430790291 0 0 0
4106 4 -4.984379182787566 28.248395367328982 0.605467197643421 0 0 0
620 2 -9.488798016035334 25.203128016558253 3.2723174522133385 0 0 0
975 2 -5.165501022344369 26.67145368076835 3.354716260644313 0 0 0
4105 4 -4.895815214764544 27.418713839877654 2.758608607162801 0 0 0
2918 3 -0.9236222510593566 27.57953620903128 1.8113853456219606 0 0 0
981 2 -0.941282340014126 25.698727717127674 3.7538516065320575 0 0 0
4249 4 4.399550458560243 27.200774465620015 0.5357193390950158 0 0 0
181 1 4.156519042551807 28.010353670157947 1.506423024090543 0 0 0
1334 2 4.09285933643064 26.270546572566165 0.48800470836748344 0 0 0
4250 4 3.4033481087514135 27.74207412090352 2.556618394315032 0 0 0
1333 2 2.733989397100359 26.97584809291071 2.55239210058878 0 0 0
1335 2 4.887274734932216 27.86359179547449 47.08954000746859 0 0 -1
3134 3 8.327465465077239 27.744195485672805 1.4885786342003628 0 0 0
1694 2 11.599076908832316 28.069769283944822 0.9730536837969486 0 0 0
4394 4 13.802087289311691 26.763816300173648 0.6527927989779614 0 0 0
253 1 13.414260798250222 27.401342432951587 1.7348472179220404 0 0 0
1697 2 13.998831172406422 27.300734775293552 2.6165603043143837 0 0 0
1696 2 14.765765993190564 26.523131839650972 0.6704015627019762 0 0 0
3350 3 17.330066862778512 27.534911129011583 1.9532485534657136 0 0 0
325 1 21.68542511315733 27.753072030646514 1.628034879390174 0 0 0
4538 4 21.271837858873937 27.984868966359706 2.8531597783831124 0 0 0
2057 2 22.79185870801357 27.640433195682277 1.4897411817249042 0 0 0
2056 2 21.91152193943039 27.9512442813672 3.6601091946517865 0 0 0
3566 3 26.033194516458643 27.72677454859338 2.1191214739104414 0 0 0
2060 2 25.75437274492484 24.737454638892686 3.698730218975698 0 0 0
4681 4 30.702597597622017 27.011527537082202 3.0638381916903676 0 0 0
2414 2 29.966242590165983 26.350345227668413 3.3854882412850222 0 0 0
397 1 30.577184128625905 27.598813600747384 1.8966283367950847 0 0 0
2413 2 28.75047658676555 26.99888206964513 1.19209788787006 0 0 0
2470 2 33.85844757846121 25.95097251561021 0.2721946320374272 0 0 1
3782 3 35.242063278118636 27.402785627478604 1.7604423149118165 0 0 0
617 2 -14.209742081252124 28.541932030293253 1.7545228345842079 0 0 0
2739 3 -15.779090954226138 31.23353875316901 1.790787528892831 0 0 0
4874 5 -9.339507921217898 30.20515540949934 3.6475306721112504 0 0 0
2737 3 -11.650210961500033 30.721799231870204 1.3652889906988253 0 0 0
615 2 -13.523941177823895 27.88121979592965 47.25068889455505 0 0 -1
973 2 -4.44167970317321 29.154890988002656 0.7362782764355802 0 0 0
974 2 -4.159543006308356 28.0491781957485 2.965453643158466 0 0 0
2953 3 -3.159166015592742 31.01250935548958 1.4020217676159827 0 0 0
4946 5 -0.7779948033521578 30.08929836450099 3.6259476380152726 0 0 0
3171 3 1.461637564863391 31.035988233892564 1.3840946125084477 0 0 0
1336 2 3.27024145994111 28.417076998674563 3.313304516767821 0 0 0
1337 2 4.570475278461714 28.985076805324752 1.378514081789921 0 0 0
5018 5 7.891738347891195 30.246692484058926 3.400265445881975 0 0 0
4393 4 12.254792871713368 28.02757539553469 1.7563860127482773 0 0 0
1695 2 11.814853829118478 28.401679945344434 2.618619861001545 0 0 0
3385 3 14.750861037735966 31.35047376341541 1.4727627724200547 0 0 0
3603 3 19.149067142304403 31.44397308526867 1.3961714436794805 0 0 0
5090 5 17.192766438070713 30.370974270461694 3.3695469744407798 0 0 0
2054 2 19.86960037191945 28.026519431505257 0.7771533586998973 0 0 0
4537 4 20.85337815198697 27.84941237022106 0.5996199923953651 0 0 0
2053 2 20.34431640083037 28.255300899425546 3.147366959054756 0 0 0
3601 3 23.816951823153286 31.369369834600455 2.0816207495801367 0 0 0
5161 5 26.03024295288766 30.040854493160005 0.07118951726026243 0 0 0
4682 4 29.561368272397512 27.553238815155908 1.0933714072175633 0 0 0
3819 3 28.05154231709932 31.44751425166815 1.883593894533627 0 0 0
2416 2 29.66464414634123 27.90307757552338 0.1782241655240911 0 0 0
2417 2 31.35942095915579 28.31420549234348 1.5474735846122178 0 0 0
3817 3 32.50847510417825 31.113413687325032 1.7431743321315798 0 0 0
677 2 -17.280068569516157 34.2765388372536 0.910299079643511 0 0 0
675 2 -16.1111093269015 35.443024160304546 2.3605094486482527 0 0 0
4130 4 -10.116742269575715 34.27262641200218 1.9922514841622339 0 0 0
1036 2 -9.700946086274003 33.451392529471306 1.5804043456569812 0 0 0
1033 2 -11.01306571628805 34.57325366291674 1.6404415489258943 0 0 0
2955 3 -7.645402428124882 31.920922784218643 1.5119393028403463 0 0 0
1037 2 -8.253331546641553 34.98932856362369 2.67062246373545 0 0 0
4274 4 -0.5900578776803812 34.47113033514391 0.7394565018322001 0 0 0
1396 2 -0.31545500965218704 33.67011536624679 0.1662591019485788 0 0 0
1397 2 0.6548010871575662 33.96103575942625 2.2294623838314096 0 0 0
193 1 -0.09766745162983487 34.67648284165057 1.89345353765517 0 0 0
3169 3 5.692697072559251 31.442440953938895 1.2440368631874508 0 0 0
1757 2 9.097719211054285 34.907113577304514 2.992360342639238 0 0 0
1755 2 7.012763043514608 34.49123622962189 3.6758015982909393 0 0 0
3387 3 10.160125427381512 31.699413872069183 1.6390527270785755 0 0 0
2116 2 15.126073995993945 34.71242901502981 2.0041721829292722 0 0 0
2117 2 17.453746223760394 34.08585131566471 2.4461649074723715 0 0 0
337 1 17.173205911812403 35.08350612338454 2.0481004924145183 0 0 0
3602 3 21.683824689594775 35.27312028747315 1.7689608731324151 0 0 0
3818 3 30.34527026712962 35.18831112611052 2.399667645159417 0 0 0
2476 2 27.7283458074987 34.72590665647894 3.6694010949966014 0 0 0
2530 2 30.646163640045746 32.615905959029035 0.02942323185877979 0 0 1
676 2 -19.41143597579417 34.08753838941186 0.7594888356201894 0 0 0
674 2 -17.544494274359366 36.12596388940412 3.151338565648861 0 0 0
3985 4 -17.130347646953865 35.51279997420232 2.462209673355435 0 0 0
49 1 -17.851685762198244 34.834911384775154 1.5953671280607287 0 0 0
3986 4 -19.16043837029936 34.75541863134211 1.4765296101909517 0 0 0
673 2 -19.89240649346991 35.13468799568807 2.0657427118348344 0 0 0
2738 3 -13.520334026237155 35.50378333061218 2.1175809859676797 0 0 0
4885 5 -13.755437660181384 38.22152562398729 0.1051329578255809 0 0 0
1034 2 -10.588007371598778 36.787638145941 2.5696786705925336 0 0 0
4129 4 -9.687457262444035 36.432557128055336 2.640703131269637 0 0 0
121 1 -9.27026633756812 35.230714041353124 2.4212862817127174 0 0 0
1035 2 -9.03851225164981 37.047680281501655 3.1079301252204816 0 0 0
2954 3 -5.591610949775504 35.22189998745033 1.8519973586997425 0 0 0
3207 3 -2.710994233321037 38.651170494604486 2.1608344990241752 0 0 0
1394 2 -0.9372459441888337 36.56111997919851 2.2513773042583547 0 0 0
4273 4 -0.4841295261757832 35.723681897351156 2.6232427109824714 0 0 0
1393 2 -1.3957415281188361 34.938431348543034 0.2758512888674919 0 0 0
3170 3 3.5815787645155495 34.92787109194241 1.5504302007945299 0 0 0
4417 4 7.0916345220347194 34.71807729535172 2.6912938225412404 0 0 0
265 1 8.300133425102436 34.96045042151448 2.2271975596170193 0 0 0
1754 2 6.213318099143844 34.620337373675966 2.2117868672638474 0 0 0
4418 4 8.60744725876869 35.2461993975063 0.9779930354651238 0 0 0
3386 3 12.634743232584743 35.44385297478229 1.3914252213704954 0 0 0
4562 4 15.90194107687891 35.41251755423245 1.9901707241376254 0 0 0
2113 2 15.601731466872188 36.25416617735786 1.5176798183176303 0 0 0
2115 2 19.11308639703803 35.645238539620294 1.7450419931634282 0 0 0
4561 4 18.11566773964822 35.88696255610505 1.538443811756226 0 0 0
2114 2 17.876100071238174 36.845793993944554 1.378754604565911 0 0 0
5174 5 21.631221566569472 37.873899390081064 3.4244945140116783 0 0 0
409 1 26.423719023296854 35.202191849667685 2.2443255251046694 0 0 0
4705 4 25.220969018816007 35.00923708282491 1.7865950655641134 0 0 0
2475 2 24.942937189734035 35.25364049232233 0.8333000417185067 0 0 0
4706 4 26.749311112927813 34.85173966398655 3.466467085564151 0 0 0
2474 2 24.37646248935543 34.88235283158579 2.3966565849755934 0 0 0
2477 2 27.21724092194942 35.54351159359784 1.592542297530337 0 0 0
4813 5 30.19061118952011 37.73781295520337 0.5296927447276547 -1 0 0
2775 3 -20.24239345098593 38.98087322595828 2.3559391331269923 0 0 0
737 2 -21.45281725051161 41.32121311973418 1.8519102584511622 0 0 0
61 1 -22.15865697535181 42.134499988608866 2.0105776266305386 0 0 0
2773 3 -16.290442881991055 38.99761664756228 1.9005929011922529 0 0 0
790 2 -19.186956803895164 40.97607004195463 0.11427109101207863 0 0 1
2991 3 -11.548175477795041 39.467481346911015 2.3000219503679142 0 0 0
1097 2 -12.147378552271226 42.868524019142555 1.6729337401441742 0 0 0
2989 3 -6.939447450898994 39.270667196982274 2.089255410841396 0 0 0
1150 2 -8.265387932879314 41.417492643217585 0.10313578895145116 0 0 1
1453 2 -4.4304642798991 41.42399695392656 1.3443430751655399 0 0 0
3205 3 1.4600618982044875 39.056454417395614 1.6492990690565132 0 0 0
1816 2 3.2595183101860563 42.068497938384255 3.5013327626695476 0 0 0
3423 3 5.856842341706995 39.209321319246726 1.8899406079754975 0 0 0
1821 2 8.248581040665197 39.974157612021756 3.4390747068234897 0 0 0
3421 3 10.512685312517505 39.000749785930026 1.6441025577401303 0 0 0
2175 2 11.858877853346272 42.69682687441434 47.21808056974979 0 0 -1
2174 2 11.53379876573345 41.44434452643536 1.2229699311807263 0 0 0
3639 3 14.906595906527048 39.057176961086995 2.041409366527088 0 0 0
3637 3 19.569650340624793 38.98626431595345 1.3964688472965572 0 0 0
2534 2 20.853967419029342 42.61285726388152 0.24220197132658905 0 0 0
4729 4 21.663987356067892 42.3744071755615 0.8402935962541505 0 0 0
2535 2 22.22427230881338 41.62633323591524 0.4483151857622151 0 0 0
3855 3 23.998178731815432 38.88603094968636 1.0326928245523928 0 0 0
3853 3 27.975698590428074 38.82799563500487 2.4250246477818154 0 0 0
735 2 -22.33341808279991 42.623794603772254 0.06350047900851792 0 0 0
4754 5 -26.904165095787402 45.368708072266415 3.755912571242697 0 -1 0
734 2 -23.046692007496972 43.6681631781904 1.100103934540293 0 0 0
4009 4 -22.63042439158125 42.79205140854363 1.0027448986252137 0 0 0
4010 4 -22.46345559772117 42.41764752022486 3.2683453598207812 0 0 0
733 2 -23.22549030365985 43.03984341065298 3.401849666657108 0 0 0
2774 3 -18.374218865927414 43.382659530285736 1.904947168915092 0 0 0
4154 4 -13.156737559267585 42.75642409448885 3.363233851674591 0 0 0
133 1 -13.158789524147418 42.88775225439021 2.1027214477681175 0 0 0
4153 4 -14.178076487537757 43.03716745263053 1.3363211950820586 0 0 0
1094 2 -15.161137302276291 43.02320856749802 1.6111453254547745 0 0 0
1095 2 -14.041054843488721 43.20617424728076 0.34980592710729647 0 0 0
2990 3 -8.92098737398299 42.761392401409836 2.8955192744319525 0 0 0
4297 4 -5.074487019350213 42.844908736084975 3.333040908781287 0 0 0
1457 2 -5.844490736120116 44.10794665138303 1.8548687781726652 0 0 0
205 1 -5.283375538552862 43.13099095786852 2.0535244367141576 0 0 0
4298 4 -4.8769264964217065 42.34212309734373 1.0936819253449275 0 0 0
1456 2 -4.8617156962985995 42.566685066752925 0.13373433907547239 0 0 0
3206 3 -0.7285324509444517 42.834102006032325 2.0803544300576355 0 0 0
4969 5 -0.8733240951356623 45.337576341029504 0.12191629705037058 0 -1 0
1817 2 4.943331759441426 42.845280380164226 2.5820926358578746 0 0 0
1815 2 5.005496385031989 43.87216566286898 0.4949009515315643 0 0 0
1814 2 3.2700056266842608 43.73990072160122 0.2547734236257221 0 0 0
4441 4 4.085262037204671 43.478602640561306 0.7992686182279286 0 0 0
277 1 4.043145749130701 42.91097904521281 1.9623641787418655 0 0 0
4442 4 3.0430885974604283 42.411302055427626 2.589210816353518 0 0 0
1813 2 2.1298008512201743 42.45831601339998 2.154441684862454 0 0 0
3422 3 7.809791718411796 42.57835155566863 1.417443996940598 0 0 0
5042 5 8.059976562827195 45.11771386414051 3.5696449450859014 0 -1 0
4585 4 11.849790439512399 42.31860215797781 0.8023643015760421 0 0 0
2173 2 11.895188833502935 42.91165985308666 3.2891203610880457 0 0 0
2177 2 13.198225808118808 43.85378549002711 0.7445205534955808 0 0 0
4586 4 12.710007109896395 43.19454221182785 2.7002452996262085 0 0 0
349 1 12.657115488671439 43.11823548083815 1.3977159281718705 0 0 0
2176 2 13.311624596790871 43.90581211559375 3.1342554120105985 0 0 0
3638 3 16.90483986391484 42.74744255124867 2.2309895814775107 0 0 0
2537 2 22.699277633560026 42.55144396803459 2.6110189292205317 0 0 0
2536 2 21.511931014057723 44.272175003333174 3.438075725968367 0 0 0
4730 4 21.150849757058268 43.92294939925331 2.577891106058767 0 0 0
421 1 21.85694596967439 42.91218910447452 2.036419999310878 0 0 0
2533 2 20.21278717974911 44.13459427940916 2.197597086533364 0 0 0
3854 3 25.7630248834052 42.97630919139752 1.5234821886559502 0 0 0
2597 3 -0.21851384147041703 1.8124026506711135 6.1010610757642585 0 0 0
2 1 3.758979936458636 1.4321723504710406 6.095019147076982 0 0 0
3891 4 4.106316345243202 1.7573142685663985 4.882309633671545 0 0 0
440 2 4.00261602958499 1.0694738483287394 4.138912765602247 0 0 0
442 2 3.3050948910651363 0.432868479132984 6.044390391676297 0 0 0
439 2 4.420715948826762 2.729421377159048 4.767370274943926 0 0 0
3892 4 3.9723994629581334 2.0982362514295807 7.20161065262165 0 0 0
438 2 4.667962558519497 2.837407671806515 7.241065584691502 0 0 0
2813 3 8.098667974124783 2.4535650684149846 5.951910950811266 0 0 0
4826 5 8.517628601918203 0.136263598122907 3.721447283975978 0 0 0
74 1 12.73289777214657 2.051760590076493 6.103245742465348 0 0 0
801 2 12.452030601299775 2.3148490855769888 4.102703450264892 0 0 0
4036 4 12.469824885674283 2.7865780106713096 5.005086330372802 0 0 0
802 2 12.61589976738231 0.9450382000558151 5.999977026611963 0 0 0
3029 3 17.850391366671456 2.2849347447117383 6.55042587538672 0 0 0
4898 5 17.491266644470674 -0.08835824293412253 4.421546960390847 0 0 0
146 1 21.83973570758518 2.1575611722391415 5.665071356145149 0 0 0
1162 2 22.09423288691094 1.7398818337339197 4.710147344258161 0 0 0
4180 4 22.369091549656105 1.6786810730883248 6.8002322569489735 0 0 0
1161 2 23.012680474055273 0.900121096816286 6.827334598161255 0 0 0
4970 5 26.07370902249867 -0.25906325704969935 4.137357895280421 0 0 0
3245 3 26.466973206837576 2.329410720689697 6.284064902366222 0 0 0
1521 2 30.096040138146524 1.3037253316350983 3.7825120201652056 0 0 0
4324 4 29.773735776480727 1.8475700933453996 4.5868793009340605 0 0 0
218 1 30.604756189438977 1.9846702553258777 5.551371321057648 0 0 0
1518 2 28.91493729492926 2.392147759221808 4.610657082537438 0 0 0