LAMMPS (29 Aug 2024 - Development - 5b9cae1)
OMP_NUM_THREADS environment is not set. Defaulting to 1 thread. (src/comm.cpp:98)
  using 1 OpenMP thread(s) per MPI task
Reading data file ...
  triclinic box = (0 0 0) to (51.9618 45.000239 47.4132) with tilt (-25.9809 0 0)
WARNING: Triclinic box skew is large. LAMMPS will run inefficiently. (src/domain.cpp:221)
  1 by 1 by 1 MPI processor grid
  reading atoms ...
  5184 atoms
  read_data CPU = 0.065 seconds
[GRACE] TF version: 2.16.2
[GRACE] Neighbour padding is ON, padding fraction: 0.01, max padding fraction before reduction: 0.2, max number of reduction(s): 10
[GRACE] Loading /mnt/scratch2/q13camb_scratch/perovskites/CsPbI3_relaxed_structures/Grace/GRACE-1L-train/pero_1L_H100/restart_16_save/seed/1/saved_model
[GRACE] Model loaded
[GRACE] Mapping LAMMPS atom type #1(C) -> ACE species type #5
[GRACE] Mapping LAMMPS atom type #2(H) -> ACE species type #12
[GRACE] Mapping LAMMPS atom type #3(I) -> ACE species type #13
[GRACE] Mapping LAMMPS atom type #4(N) -> ACE species type #18
[GRACE] Mapping LAMMPS atom type #5(Pb) -> ACE species type #22
WARNING: Calling write_dump before a full system init. (src/write_dump.cpp:88)

CITE-CITE-CITE-CITE-CITE-CITE-CITE-CITE-CITE-CITE-CITE-CITE-CITE

Your simulation uses code contributions which should be cited:
- Type Label Framework: https://doi.org/10.1021/acs.jpcb.3c08419
The log file lists these citations in BibTeX format.

CITE-CITE-CITE-CITE-CITE-CITE-CITE-CITE-CITE-CITE-CITE-CITE-CITE

Switching to 'neigh_modify every 1 delay 0 check yes' setting during minimization
Neighbor list info ...
  update: every = 1 steps, delay = 0 steps, check = yes
  max neighbors/atom: 2000, page size: 100000
  master list distance cutoff = 7
  ghost atom cutoff = 7
  binsize = 3.5, bins = 23 13 14
  1 neighbor lists, perpetual/occasional/extra = 1 0 0
  (1) pair grace, perpetual
      attributes: full, newton on
      pair build: full/bin/atomonly
      stencil: full/bin/3d
      bin: standard
Setting up cg style minimization ...
  Unit style    : metal
  Current step  : 0
WARNING: Energy due to 1 extra global DOFs will be included in minimizer energies
 (src/min.cpp:219)
Per MPI rank memory allocation (min/avg/max) = 5.703 | 5.703 | 5.703 Mbytes
   Step          Temp          E_pair         E_mol          TotEng         Press          Volume    
         0   0             -77015.255      0             -77015.255      7399.5819      110865.97    
        99   0             -77170.573      0             -77170.573      40.495531      117904.35    
Loop time of 20.6656 on 1 procs for 99 steps with 5184 atoms

99.6% CPU use with 1 MPI tasks x 1 OpenMP threads

Minimization stats:
  Stopping criterion = energy tolerance
  Energy initial, next-to-last, final = 
     -77015.2545877631  -77170.5721830985  -77170.5729306865
  Force two-norm initial, final = 1537.046 13.660168
  Force max component initial, final = 1536.0889 8.7586527
  Final line search alpha, max atom move = 0.00041768301 0.0036583404
  Iterations, force evaluations = 99 195

MPI task timing breakdown:
Section |  min time  |  avg time  |  max time  |%varavg| %total
---------------------------------------------------------------
Pair    | 19.65      | 19.65      | 19.65      |   0.0 | 95.09
Neigh   | 0.93978    | 0.93978    | 0.93978    |   0.0 |  4.55
Comm    | 0.020283   | 0.020283   | 0.020283   |   0.0 |  0.10
Output  | 0          | 0          | 0          |   0.0 |  0.00
Modify  | 0          | 0          | 0          |   0.0 |  0.00
Other   |            | 0.05553    |            |       |  0.27

Nlocal:           5184 ave        5184 max        5184 min
Histogram: 1 0 0 0 0 0 0 0 0 0
Nghost:           6559 ave        6559 max        6559 min
Histogram: 1 0 0 0 0 0 0 0 0 0
Neighs:              0 ave           0 max           0 min
Histogram: 1 0 0 0 0 0 0 0 0 0
FullNghs:       325512 ave      325512 max      325512 min
Histogram: 1 0 0 0 0 0 0 0 0 0

Total # of neighbors = 325512
Ave neighs/atom = 62.791667
Neighbor list builds = 80
Dangerous builds = 23
System init for write_data ...
Setting up Verlet run ...
  Unit style    : metal
  Current step  : 99
  Time step     : 0.001
Per MPI rank memory allocation (min/avg/max) = 4.596 | 4.596 | 4.596 Mbytes
   Step          Temp          PotEng         KinEng         TotEng         Press            Lx             Ly             Lz             Xy             Xz             Yz      
        99   300           -77170.573      200.9866      -76969.586      1861.2709      53.038924      45.933056      48.396035     -26.519462      0              0            
       100   279.01156     -77155.204      186.92528     -76968.279      1979.3796      53.039014      45.93308       48.396224     -26.519632      0.00031790557 -0.00026340131
       200   248.17015     -77136.429      166.26291     -76970.166     -1849.6794      52.975403      45.759753      48.300562     -26.987092      1.164356      -1.0295719    
       300   224.07167     -77114.447      150.11801     -76964.329     -883.69141      52.246207      45.358257      48.026339     -26.716633      1.5269408     -1.6415774    
       400   243.93451     -77121.081      163.42523     -76957.655      1218.556       51.970281      45.228056      48.288501     -26.664346      1.5379545     -2.1267674    
       500   236.43676     -77114.11       158.40207     -76955.708      454.58444      52.706599      45.938865      48.164406     -27.240064      1.6864966     -2.5741519    
       600   247.58071     -77115.086      165.86802     -76949.218      104.43031      52.650924      45.834873      47.77505      -27.048049      1.6903019     -2.6855616    
       700   257.96433     -77119.02       172.82458     -76946.196      550.54306      52.641851      45.716076      47.610291     -26.765994      1.4376308     -2.436136     
       800   259.38476     -77115.575      173.7762      -76941.799     -1608.9284      52.651939      45.782978      47.440512     -26.822693      1.3204182     -2.1789404    
       900   269.51187     -77116.602      180.56091     -76936.041      209.19334      52.657646      45.931987      47.342939     -26.815108      1.3905236     -2.0481502    
      1000   269.47112     -77112.497      180.53361     -76931.963      346.27826      52.76337       46.01987       47.415138     -26.698288      1.3409042     -1.9929886    
      1100   266.94661     -77106.168      178.84231     -76927.325      109.22902      52.934746      45.934402      47.380783     -26.636006      1.2491631     -1.9975546    
      1200   264.49505     -77103.218      177.19987     -76926.019     -117.18391      53.01419       45.737794      47.358505     -26.707143      1.1546665     -1.9139991    
      1300   272.82633     -77103.233      182.78145     -76920.451     -447.61552      53.074395      45.653244      47.321128     -26.758442      1.083051      -1.7976321    
      1400   273.21989     -77101.97       183.04512     -76918.924      21.622157      53.269656      45.757749      47.326666     -26.843117      0.97512291    -1.7345982    
      1500   276.28106     -77100.958      185.09597     -76915.862      348.28866      53.179428      45.783303      47.343292     -26.702353      0.8300945     -1.5563637    
      1600   283.90122     -77101.537      190.20114     -76911.336     -100.90269      52.96011       45.772151      47.413013     -26.523658      0.70415007    -1.3011549    
      1700   283.65936     -77099.905      190.0391      -76909.866     -195.09764      52.886843      45.820345      47.453477     -26.435106      0.37794427    -1.0807538    
      1800   283.04788     -77097.456      189.62943     -76907.826     -30.357278      52.787998      45.995971      47.407        -26.434784      0.20647564    -0.87124572   
      1900   282.75436     -77094.622      189.43279     -76905.189      149.62753      52.845077      46.08166       47.407544     -26.503535      0.07502571    -0.6930594    
      2000   288.91776     -77096.252      193.562       -76902.69       616.10049      52.977938      45.911756      47.331705     -26.54206       0.073078568   -0.60232956   
      2100   287.77301     -77093.992      192.79506     -76901.197     -314.01611      53.046523      45.798111      47.421221     -26.544699      0.066759492   -0.59410853   
      2200   284.41047     -77092.037      190.54231     -76901.495     -116.04508      53.073537      45.772112      47.416991     -26.358547     -0.027110641   -0.56090796   
      2300   290.28874     -77094.796      194.48049     -76900.315      297.8122       53.145207      45.656489      47.496609     -26.251798      0.028369109   -0.56153414   
      2400   285.20521     -77091.464      191.07475     -76900.39      -61.937085      53.133053      45.573559      47.564502     -26.338415      0.11886937    -0.66302734   
      2500   291.41738     -77097.36       195.23663     -76902.123      649.42732      53.021305      45.607846      47.516121     -26.343362     -0.074016549   -0.63700533   
      2600   285.67579     -77090.362      191.39002     -76898.972     -726.82771      53.027817      45.869227      47.505091     -26.48126      -0.1896367     -0.5974956    
      2700   290.47779     -77091.647      194.60714     -76897.04       182.5085       52.78643       45.94917       47.43791      -26.593142     -0.062236718   -0.73049531   
      2800   291.31919     -77092.404      195.17084     -76897.233     -263.54587      52.665792      46.0772        47.474228     -26.429188     -0.018964156   -0.75906838   
      2900   291.66488     -77089.914      195.40244     -76894.512      534.10948      52.689989      45.942666      47.337401     -26.266356     -0.10762319    -0.730867     
      3000   294.69922     -77092.07       197.43531     -76894.635     -126.16819      52.819504      46.018172      47.381389     -26.379873      0.050278183   -0.73923086   
      3100   295.50153     -77090.834      197.97282     -76892.861     -166.81983      53.125107      45.857828      47.364461     -26.471464      0.083573377   -0.64987481   
      3200   287.47678     -77086.724      192.5966      -76894.127     -8.8384069      53.297168      45.826007      47.322582     -26.488372      0.058136427   -0.46589879   
      3300   289.6103      -77087.876      194.02596     -76893.85       134.61255      53.30021       45.717636      47.460725     -26.630693      0.1065864     -0.2034825    
      3400   292.92057     -77091.115      196.2437      -76894.871      415.71969      53.00143       45.698471      47.429008     -26.654561      0.15920443    -0.070052924  
      3500   293.18363     -77089.855      196.41993     -76893.435     -339.21457      52.915309      45.974359      47.440975     -26.65054       0.17514582    -0.013763152  
      3600   296.37402     -77091.005      198.55735     -76892.447      151.88647      52.979284      46.066514      47.362801     -26.706815      0.15027431     0.16164071   
      3700   297.7296      -77091.495      199.46553     -76892.029      114.82809      52.804258      46.130115      47.456667     -26.576337      0.12034235     0.2304624    
      3800   294.10223     -77089.344      197.03536     -76892.309     -157.19374      52.571884      46.042739      47.557436     -26.329888      0.061481419    0.089328191  
      3900   292.86747     -77087.915      196.20813     -76891.707      104.27272      52.577636      46.07616       47.464666     -26.278011     -0.086138749    0.094058957  
      4000   294.97931     -77089.854      197.62296     -76892.231     -465.59295      52.73029       46.04512       47.417239     -26.311099     -0.35943444     0.23980176   
      4100   297.1002      -77090.82       199.04386     -76891.776      114.02614      53.01462       45.839386      47.482764     -26.399859     -0.52158532     0.17114023   
      4200   290.71801     -77086.959      194.76808     -76892.191      284.04178      53.104283      45.798493      47.511269     -26.539752     -0.40653198     0.12927337   
      4300   291.74856     -77085.935      195.45851     -76890.477     -284.11211      53.121521      45.818041      47.369512     -26.591788     -0.30813762     0.20041314   
      4400   297.52633     -77089.552      199.32935     -76890.222     -252.14308      53.070549      45.906163      47.322141     -26.618174     -0.25123532     0.15759766   
      4500   299.59002     -77089.169      200.71193     -76888.457     -509.81349      52.770506      46.066817      47.549223     -26.457068     -0.31286724     0.13886522   
      4600   294.735       -77086.213      197.45928     -76888.754      901.12157      52.898125      45.832991      47.532779     -26.524806     -0.23061359     0.2985667    
      4700   298.3296      -77089.249      199.8675      -76889.381     -857.82642      53.013931      45.948985      47.403396     -26.644708     -0.04009507     0.21509702   
      4800   294.69092     -77085.383      197.42975     -76887.954     -172.42336      52.900398      45.899742      47.375167     -26.587837      0.0042722315   0.12782834   
      4900   299.84379     -77086.753      200.88194     -76885.871      360.26701      52.971946      45.860534      47.361836     -26.607436     -0.18418697     0.040333542  
      5000   303.09758     -77088.658      203.06184     -76885.597     -853.04119      52.97399       46.079794      47.303471     -26.600277     -0.16772813    -0.15236693   
      5100   296.56363     -77085.107      198.68438     -76886.423      895.13777      53.013739      46.014199      47.292737     -26.616827     -0.21012439    -0.10964391   
      5200   300.65043     -77086.365      201.42236     -76884.943     -88.614382      53.022296      46.047249      47.401623     -26.536362     -0.53465839     0.017689883  
      5300   297.40617     -77083.54       199.24885     -76884.291     -673.13935      53.078457      46.023626      47.359705     -26.524641     -0.52833329     0.01064164   
      5400   297.4577      -77083.703      199.28338     -76884.42       468.71217      53.048122      45.946049      47.278387     -26.472621     -0.46004085     0.035220446  
      5500   303.42481     -77088.38       203.28107     -76885.099     -419.9107       53.043713      46.007143      47.325148     -26.398513     -0.46902779     0.35111235   
      5600   291.04837     -77081.806      194.9894      -76886.816      185.43684      53.201143      45.936017      47.3161       -26.594798     -0.51547254     0.50725487   
      5700   296.81807     -77084.628      198.85485     -76885.773      484.34824      53.08487       45.950993      47.298348     -26.723789     -0.4994836      0.5426989    
      5800   298.55297     -77084.338      200.01715     -76884.321     -723.87603      53.189651      45.933338      47.447818     -26.955609     -0.38926124     0.62374528   
      5900   299.1956      -77084.681      200.44769     -76884.233      1045.5295      53.074994      45.932865      47.408464     -26.92646      -0.33838742     0.52531089   
      6000   296.53433     -77084.385      198.66476     -76885.721     -886.07471      53.116311      46.05243       47.385205     -26.879831     -0.27106938     0.40022832   
      6100   295.52002     -77084.972      197.98521     -76886.987      358.25123      53.167716      46.029933      47.282794     -26.853003     -0.067384839    0.30964267   
      6200   295.70672     -77084.843      198.11029     -76886.733      69.945491      52.934623      45.931858      47.428436     -26.769988      0.098460752    0.34193104   
      6300   299.94037     -77087.999      200.94665     -76887.052     -41.517951      52.878635      45.955733      47.543935     -26.590745      0.090655371    0.40006819   
      6400   294.9646      -77085.297      197.61311     -76887.684      107.14484      52.937041      46.027401      47.298508     -26.414846      0.049224636    0.1848482    
      6500   296.14751     -77086.319      198.4056      -76887.913      288.33899      53.026876      45.923534      47.326502     -26.403918      0.061490934    0.16543699   
      6600   303.10638     -77091.311      203.06774     -76888.243     -604.87702      53.150899      45.779457      47.460161     -26.53928      -0.067946986    0.2200892    
      6700   298.16618     -77089.66       199.75802     -76889.902      194.50575      53.244626      45.68544       47.325594     -26.6547       -0.20438722     0.043899995  
      6800   294.05025     -77089.569      197.00053     -76892.568      151.77256      53.049199      45.738804      47.370881     -26.605257     -0.10298546     0.078738534  
      6900   292.63944     -77088.648      196.05535     -76892.592      56.16477       53.026613      45.801236      47.476723     -26.716181     -0.16180449     0.075420981  
      7000   295.72979     -77089.401      198.12575     -76891.275     -75.881718      53.105513      45.737705      47.454774     -26.769738     -0.28545843    -0.078486387  
      7100   296.57919     -77086.418      198.69481     -76887.723     -318.57909      53.144972      45.905943      47.47567      -26.588397     -0.10117214    -0.18825906   
      7200   298.06538     -77085.465      199.69049     -76885.775      655.56719      53.15969       45.72915       47.400422     -26.481359     -0.036962475   -0.28317313   
      7300   296.04151     -77084.377      198.33459     -76886.043      158.20592      53.051093      45.80045       47.458333     -26.424933     -0.3140959     -0.21633248   
      7400   299.57784     -77088.02       200.70377     -76887.316     -198.21926      52.931352      45.882165      47.524351     -26.37463      -0.4587823     -0.32403849   
      7500   295.82344     -77086.142      198.18849     -76887.954     -16.06408       53.014846      45.911092      47.490772     -26.377441     -0.43607832    -0.33275317   
      7600   298.53802     -77089.209      200.00714     -76889.202     -70.619286      52.843069      46.167081      47.355713     -26.223112     -0.45386734    -0.26212242   
      7700   292.02058     -77086.72       195.64075     -76891.08       287.61742      52.853949      46.040934      47.376561     -26.143562     -0.4594873     -0.32301464   
      7800   296.40376     -77087.44       198.57728     -76888.863      653.95477      52.890129      45.904262      47.413351     -26.218397     -0.29774255    -0.29200126   
      7900   295.39343     -77086.786      197.9004      -76888.886     -766.75243      52.953108      46.044736      47.457135     -26.357043     -0.2183368     -0.19700094   
      8000   300.47001     -77088.029      201.30149     -76886.728      143.41534      53.129113      45.797258      47.400312     -26.453044     -0.27084351    -0.067095284  
      8100   299.70051     -77087.072      200.78595     -76886.286      203.361        53.008239      45.775377      47.460987     -26.28645      -0.22272475    -0.15376221   
      8200   295.30765     -77085.663      197.84293     -76887.82       626.5279       53.022351      45.832776      47.381447     -26.39992      -0.26351105    -0.42501069   
      8300   295.97763     -77084.344      198.29179     -76886.052     -149.13225      53.275541      45.802487      47.320946     -26.656539     -0.37068821    -0.57173384   
      8400   298.7078      -77084.905      200.12088     -76884.784     -396.91515      52.997866      45.957865      47.416908     -26.42099      -0.33562171    -0.66914357   
      8500   301.95349     -77085.008      202.29535     -76882.713     -226.60146      52.81658       45.854893      47.436521     -26.368516     -0.35351624    -0.7528954    
      8600   304.95932     -77084.921      204.30912     -76880.612      171.806        52.985822      45.838445      47.420814     -26.529104     -0.43092829    -0.68483516   
      8700   303.55943     -77085.344      203.37126     -76881.973     -232.30152      53.019941      45.915098      47.466356     -26.477463     -0.4862079     -0.53608779   
      8800   305.09758     -77083.996      204.40175     -76879.594      565.72947      53.130329      45.704796      47.452797     -26.330846     -0.43720089    -0.43364881   
      8900   303.98767     -77085.463      203.65816     -76881.805     -281.51774      53.033651      45.851781      47.550895     -26.206126     -0.31859191    -0.34493239   
      9000   298.67323     -77082.802      200.09772     -76882.704     -154.70933      52.872277      45.992133      47.445012     -26.164508     -0.27492301    -0.32807049   
      9100   297.98804     -77082.638      199.63868     -76882.999      264.98775      53.113568      45.976355      47.329854     -26.256093     -0.21956318    -0.28361033   
      9200   303.44023     -77084.137      203.2914      -76880.846     -578.98794      52.997016      46.020781      47.495962     -26.279352     -0.18317469    -0.35799085   
      9300   304.95499     -77083.971      204.30622     -76879.665      529.50167      52.99572       45.937214      47.583528     -26.341217     -0.21810256    -0.29604698   
      9400   301.29645     -77084.051      201.85516     -76882.196     -425.53422      53.253446      45.811875      47.423913     -26.537274     -0.25401185    -0.12445505   
      9500   302.97556     -77084.977      202.98009     -76881.997      31.202567      53.184127      45.79968       47.351427     -26.448031     -0.38638532    -0.13194552   
      9600   299.77923     -77083.636      200.83869     -76882.798      194.91347      53.08484       45.655562      47.410453     -26.374592     -0.31490184    -0.16307856   
      9700   297.64546     -77083.421      199.40916     -76884.011     -774.62188      53.244338      45.820053      47.490239     -26.515179     -0.19002707    -0.17912805   
      9800   304.46463     -77086.214      203.9777      -76882.237      62.642763      52.965917      45.954338      47.453741     -26.541811     -0.38889485    -0.32027887   
      9900   297.99178     -77081.172      199.64118     -76881.531     -329.89975      52.875093      45.973925      47.580905     -26.654417     -0.39866389    -0.41130754   
     10000   299.74394     -77082.859      200.81505     -76882.044      70.103218      52.78562       46.047425      47.426767     -26.661043     -0.23400661    -0.40005833   
     10100   299.05802     -77082.638      200.35552     -76882.282      82.777409      52.998671      46.00854       47.354733     -26.812042     -0.3051545     -0.40793177   
     10200   297.37574     -77083.894      199.22846     -76884.665     -431.14448      53.1709        46.091929      47.42729      -26.872565     -0.38116724    -0.40069622   
     10300   306.54893     -77089.246      205.37409     -76883.872      223.19733      53.010128      45.937877      47.403989     -26.554175     -0.32508497    -0.33280069   
     10400   296.58739     -77081.267      198.7003      -76882.567      299.78513      52.879913      45.785303      47.580399     -26.259636     -0.45640251    -0.26968447   
     10500   299.73281     -77084.083      200.80759     -76883.276     -288.93816      52.931012      45.943975      47.451236     -26.387689     -0.49918874    -0.21752059   
     10600   300.64617     -77085.788      201.4195      -76884.369      193.09637      52.999177      46.016722      47.355733     -26.489715     -0.35941855    -0.090369845  
     10700   298.88678     -77081.736      200.24079     -76881.496     -200.65552      53.097991      45.935896      47.524467     -26.528132     -0.23571463     0.17019639   
     10800   303.95081     -77087.655      203.63347     -76884.022      148.13428      52.956756      45.854076      47.401022     -26.562943     -0.037746347    0.25888966   
     10900   301.04589     -77086.632      201.6873      -76884.945      539.195        53.025563      45.856413      47.326485     -26.789103     -0.0055545472   0.17897002   
     11000   298.6226      -77083.597      200.0638      -76883.533     -394.03784      53.111858      45.853934      47.483673     -26.841432     -0.044660229    0.200612     
     11100   299.66373     -77085.541      200.76131     -76884.78       145.84858      53.019348      45.862723      47.50115      -26.676442     -0.24921415     0.23498135   
     11200   299.81206     -77085.384      200.86069     -76884.524     -688.18507      53.056953      46.012969      47.469188     -26.615223     -0.34013036     0.15876619   
     11300   296.42898     -77085.216      198.59418     -76886.622      914.328        53.100081      45.983406      47.312493     -26.521043     -0.31824571     0.059275606  
     11400   297.15195     -77085.123      199.07853     -76886.045      41.451254      53.137423      45.798141      47.311046     -26.402173     -0.38983966     0.24397609   
     11500   299.80845     -77087.26       200.85827     -76886.402     -111.3039       52.986328      45.794588      47.41699      -26.282567     -0.36368719     0.33835795   
     11600   299.60313     -77086.453      200.72071     -76885.732      159.46173      53.055269      45.774451      47.520717     -26.168812     -0.31507364     0.19314615   
     11700   296.26458     -77084.126      198.48403     -76885.642     -997.26083      53.310153      45.928052      47.346061     -26.292106     -0.22807969     0.21824345   
     11800   295.45708     -77082.723      197.94305     -76884.78       766.30066      52.9025        46.126418      47.240316     -26.336196     -0.16437169     0.065670695  
     11900   302.10831     -77085.72       202.39907     -76883.321     -525.01881      52.825757      45.994368      47.418484     -26.36216      -0.1649121     -0.12289957   
     12000   300.77181     -77084.965      201.50368     -76883.461      458.36973      52.840029      46.095266      47.390787     -26.32067      -0.15073131    -0.15999154   
     12100   302.64221     -77084.138      202.75676     -76881.382     -560.79078      52.820764      46.200451      47.300947     -26.480527     -0.31462142    -0.078892606  
     12200   301.17143     -77083.331      201.7714      -76881.56       130.56481      52.953951      46.134908      47.337712     -26.683771     -0.47201761    -0.11465171   
     12300   296.60579     -77079.429      198.71263     -76880.717     -94.450166      52.837793      46.117606      47.306381     -26.552482     -0.49735168    -0.26080315   
     12400   305.34835     -77084.662      204.56976     -76880.092      710.06497      52.767422      46.006604      47.385771     -26.465854     -0.44872817    -0.27757294   
     12500   304.59131     -77082.368      204.06257     -76878.306     -619.72924      52.900385      46.025912      47.491015     -26.374769     -0.40937532    -0.32114446   
     12600   301.11438     -77080.772      201.73319     -76879.039      186.82505      53.010833      46.067683      47.338823     -26.258609     -0.36529414    -0.33684244   
     12700   302.98352     -77082.108      202.98542     -76879.122      213.64536      53.03515       46.002861      47.327867     -26.180912     -0.17937427    -0.37832343   
     12800   301.98698     -77080.187      202.31779     -76877.869     -507.81214      53.018059      45.975813      47.432054     -26.11536      -0.1547699     -0.28893201   
     12900   301.63043     -77076.575      202.07891     -76874.496      296.0399       53.095543      45.97445       47.269501     -26.220823     -0.27069698    -0.11721936   
     13000   304.67048     -77080.426      204.11561     -76876.31      -362.68145      52.994112      46.026351      47.322246     -26.377217     -0.17141851    -0.10124976   
     13100   305.20456     -77081.646      204.47342     -76877.172     -6.6579332      52.810355      46.064464      47.475951     -26.528663      0.029866376   -0.0034219855 
     13200   302.78698     -77080.953      202.85375     -76878.1        650.49383      52.80937       46.1074        47.328396     -26.577687     -0.081901354    0.091779221  
     13300   305.45529     -77083.857      204.6414      -76879.216     -728.97807      52.993979      46.088341      47.29712      -26.583412     -0.22491062    -0.048822069  
     13400   302.7594      -77082.312      202.83527     -76879.477     -180.22554      52.887507      46.065968      47.362254     -26.605194     -0.2050366     -0.13921027   
     13500   295.26047     -77076.002      197.81133     -76878.191      325.49574      52.999174      45.88225       47.393607     -26.779784     -0.3525948     -0.22039323   
     13600   303.9656      -77083.073      203.64337     -76879.43       137.81284      53.130821      45.916046      47.436751     -26.78671      -0.62841301    -0.49337453   
     13700   303.28178     -77082.203      203.18525     -76879.018     -513.07619      53.046982      45.991768      47.40508      -26.732564     -0.54662538    -0.47738203   
     13800   303.10728     -77080.919      203.06834     -76877.85       330.90326      53.008774      45.903385      47.314198     -26.788525     -0.4912607     -0.48621303   
     13900   303.70345     -77082.931      203.46774     -76879.463     -727.45613      53.009401      45.882036      47.496945     -26.778403     -0.68038999    -0.81390634   
     14000   298.36593     -77081.963      199.89185     -76882.072      81.41792       52.814853      45.882543      47.497243     -26.673686     -0.66187323    -0.87332333   
     14100   302.7023      -77085.478      202.79702     -76882.681     -135.92143      52.934944      45.956544      47.360039     -26.6239       -0.49021493    -0.93833566   
     14200   296.58808     -77084.516      198.70077     -76885.815     -131.78116      52.934654      45.85197       47.503238     -26.466236     -0.39190066    -0.97984963   
     14300   294.96065     -77082.301      197.61046     -76884.691      416.38092      52.84932       45.758025      47.569528     -26.30447      -0.3129778     -0.80467966   
     14400   298.50346     -77086.167      199.98398     -76886.183     -333.37507      53.011258      45.850845      47.426593     -26.323901     -0.05980959    -0.64534191   
     14500   295.32009     -77083.972      197.85127     -76886.121      311.23041      52.992029      45.988856      47.367572     -26.209845     -0.040764872   -0.81262329   
     14600   295.67717     -77084.558      198.0905      -76886.468     -134.30546      52.87696       45.986999      47.489378     -26.0818       -0.021208224   -0.7034843    
     14700   301.89172     -77087.845      202.25397     -76885.591     -47.921645      52.853843      45.893821      47.446997     -26.173285      0.19954801    -0.45431374   
     14800   301.47404     -77086.88       201.97414     -76884.906      354.20348      52.923629      45.791676      47.399078     -26.348703      0.30887058    -0.29305822   
     14900   296.59761     -77086.085      198.70715     -76887.378     -451.49583      52.911329      45.788846      47.547988     -26.462701      0.45402714    -0.1203328    
     15000   298.94959     -77089.132      200.28287     -76888.849      124.71548      53.04241       45.780675      47.427751     -26.560449      0.61663963     0.16888464   
     15100   298.10167     -77087.074      199.7148      -76887.359     -92.250551      53.033267      45.802171      47.413272     -26.56442       0.63676808     0.35856505   
     15200   297.56355     -77085.865      199.35429     -76886.51      -247.38192      52.946971      45.810511      47.494465     -26.576523      0.58463803     0.26950346   
     15300   296.28786     -77083.342      198.49963     -76884.842      446.55108      53.037734      45.858673      47.402441     -26.64911       0.60027821     0.3496621    
     15400   295.89784     -77081.905      198.23833     -76883.666     -62.629892      53.132152      45.970964      47.419874     -26.635652      0.62775935     0.63425707   
     15500   302.90976     -77086.845      202.93601     -76883.909      21.300018      53.081507      45.818097      47.468043     -26.463053      0.49620064     0.74741594   
     15600   299.73902     -77086.504      200.81175     -76885.692     -172.48881      52.937062      45.813103      47.459293     -26.200691      0.52313242     0.65528496   
     15700   297.92373     -77088.465      199.59559     -76888.87       389.54132      52.9097        45.946879      47.320948     -26.231962      0.64913802     0.58321312   
     15800   297.17374     -77089.199      199.09313     -76890.105      206.32257      52.974859      45.900009      47.344051     -26.460239      0.43319642     0.59563918   
     15900   298.52819     -77089.363      200.00056     -76889.363     -433.1505       52.882616      46.035838      47.620258     -26.434206      0.23659909     0.53115831   
     16000   297.30708     -77086.831      199.18246     -76887.648      299.16177      52.797376      45.977487      47.421807     -26.470162      0.51292323     0.43187738   
     16100   298.13676     -77087.647      199.73832     -76887.909     -138.55563      52.995923      45.875273      47.367644     -26.646505      0.60463979     0.38201649   
     16200   300.06463     -77087.714      201.0299      -76886.684     -181.18472      53.122336      45.73601       47.479184     -26.612502      0.62762341     0.36498384   
     16300   298.09753     -77087.786      199.71203     -76888.074      558.95974      53.135309      45.822299      47.315983     -26.556234      0.82033721     0.33788632   
     16400   297.44039     -77087.163      199.27177     -76887.892     -188.19721      53.156155      45.950512      47.193131     -26.573224      0.93817902     0.29546148   
     16500   296.55632     -77085.256      198.67948     -76886.576     -200.3101       52.974443      45.845211      47.403142     -26.515424      0.895327       0.30554622   
     16600   302.91723     -77088.366      202.94101     -76885.425     -140.91791      52.849592      45.959792      47.546024     -26.495764      0.90978317     0.22470936   
     16700   301.30041     -77087.256      201.85781     -76885.398      46.960199      52.916219      45.994084      47.419262     -26.554758      0.82710186     0.089630111  
     16800   299.70899     -77084.736      200.79164     -76883.945      493.10267      53.010805      45.857816      47.355179     -26.480357      0.57460604    -0.0057334702 
     16900   298.61289     -77084.924      200.0573      -76884.867      86.765871      53.050911      45.770437      47.436341     -26.369784      0.4210276      0.05935797   
     17000   297.89739     -77085.351      199.57795     -76885.773     -254.29676      53.073273      45.709486      47.487151     -26.424151      0.55729097     0.015485902  
     17100   297.82306     -77084.696      199.52815     -76885.167     -159.23774      53.168544      45.848979      47.258366     -26.397516      0.38639517     0.0553088    
     17200   301.54215     -77087.642      202.01977     -76885.623      53.575256      53.071681      45.901878      47.283886     -26.424359      0.081345001    0.19596262   
     17300   298.54044     -77087.24       200.00876     -76887.231      154.07127      53.01253       45.818642      47.440435     -26.566841      0.10605758     0.076721522  
     17400   295.87296     -77085.797      198.22167     -76887.575      418.86005      52.991193      45.873861      47.383197     -26.557439      0.15540481     0.11604482   
     17500   293.95245     -77084.309      196.93501     -76887.374     -545.29992      53.165446      45.874732      47.334008     -26.585304     -0.032234984    0.24340496   
     17600   305.02303     -77089.217      204.35181     -76884.866      347.79387      53.066235      45.891815      47.301005     -26.462901      0.025702588    0.12822432   
     17700   299.34895     -77084.14       200.55042     -76883.59      -263.15059      52.896231      45.896314      47.421886     -26.270312      0.15398011     0.011359923  
     17800   306.25122     -77085.97       205.17464     -76880.796      262.21271      52.875694      45.889532      47.432359     -26.143381      0.13433636    -0.098621275  
     17900   304.26641     -77082.538      203.84491     -76878.693      86.768397      52.997752      45.771717      47.337503     -26.28366      -0.013065912   -0.22558162   
     18000   307.11211     -77083.717      205.75139     -76877.965     -431.43194      53.055714      45.884471      47.374645     -26.673272     -0.11919142    -0.33713689   
     18100   299.96731     -77080.567      200.9647      -76879.602      37.967637      53.190901      45.811175      47.326444     -26.868341     -0.1691382     -0.24651652   
     18200   304.11382     -77083.783      203.74268     -76880.04      -59.632762      53.326001      45.783672      47.347084     -26.878857     -0.17335066    -0.22391051   
     18300   303.73643     -77085.144      203.48984     -76881.654      519.89222      53.220702      45.791527      47.359193     -26.915584     -0.017183477   -0.1227168    
     18400   300.18284     -77083.752      201.10909     -76882.643      194.80836      53.114398      45.654362      47.315317     -26.777642      0.17908922     0.12584686   
     18500   303.42277     -77088.69       203.2797      -76885.41      -627.91512      53.12115       45.815118      47.367741     -26.514078      0.32883856     0.2442912    
     18600   299.24264     -77083.499      200.4792      -76883.02       424.00502      53.072081      45.938166      47.242097     -26.512201      0.27180462     0.56930539   
     18700   298.51458     -77081.887      199.99144     -76881.895      239.36256      53.088221      45.851911      47.360714     -26.58809       0.15948672     0.86119      
     18800   301.3171      -77085.397      201.869       -76883.528     -223.15877      52.990676      45.849314      47.425054     -26.541074      0.050763353    0.89884102   
     18900   295.78199     -77082.371      198.16072     -76884.211     -21.959042      52.992103      45.899535      47.332889     -26.50639      -0.05416093     1.0445867    
     19000   302.61678     -77087.305      202.73973     -76884.565     -262.21716      53.2136        45.692401      47.381824     -26.585593     -0.12254994     0.97980559   
     19100   302.86617     -77085.876      202.90681     -76882.97       38.648269      53.191413      45.792349      47.442595     -26.624298     -0.28767885     0.87333569   
     19200   300.63333     -77085.567      201.4109      -76884.156      380.08511      53.095036      45.826179      47.354998     -26.588778     -0.36285081     0.9528512    
     19300   302.17484     -77087.027      202.44365     -76884.584      266.06711      53.191151      45.750397      47.328362     -26.557593     -0.35843992     0.88484971   
     19400   295.45883     -77080.906      197.94422     -76882.962     -147.13516      52.917361      45.863654      47.480068     -26.408461     -0.51520117     0.71547498   
     19500   297.14517     -77084.493      199.07399     -76885.419      5.6754903      52.987621      45.929352      47.422995     -26.558676     -0.82770211     0.69290552   
     19600   291.52692     -77081.347      195.31002     -76886.037     -677.97708      53.119043      45.996672      47.395656     -26.704843     -0.86504803     0.55632912   
     19700   304.137       -77089.435      203.7582      -76885.677      1008.3311      52.941274      45.940761      47.358187     -26.688816     -0.77209166     0.38203475   
     19800   300.57768     -77086.421      201.37362     -76885.047     -107.26125      52.957193      45.95056       47.408754     -26.677607     -0.77244886     0.29610362   
     19900   298.90491     -77084.832      200.25294     -76884.579      108.99337      52.986334      45.862242      47.382374     -26.54542      -0.57802991     0.22294477   
     20000   298.92828     -77084.229      200.2686      -76883.961     -311.32028      53.104226      45.750032      47.406604     -26.463375     -0.39680476     0.22072149   
     20100   298.74951     -77085.091      200.14883     -76884.942     -105.75584      53.155069      45.90149       47.346738     -26.528251     -0.52992292     0.21288414   
     20200   298.5919      -77088.385      200.04324     -76888.342      247.19966      53.027299      45.884357      47.288299     -26.457027     -0.72387589     0.19251957   
     20300   292.21848     -77084.774      195.77333     -76889          501.74311      53.004164      45.731266      47.51772      -26.266386     -0.80148673     0.28837997   
     20400   294.83562     -77087.098      197.5267      -76889.572     -362.48909      52.811136      45.804981      47.511623     -26.073244     -0.85691856     0.21649329   
     20500   299.72775     -77087.432      200.80421     -76886.628     -494.71999      52.814532      45.913717      47.420734     -26.183241     -0.99125385     0.18535164   
     20600   298.81632     -77086.44       200.19359     -76886.247      140.72545      52.862346      45.994779      47.487306     -26.130502     -0.89138332     0.18992806   
     20700   296.40938     -77084.251      198.58105     -76885.67       407.20099      52.697761      46.04004       47.401925     -26.02842      -0.61346387     0.081274554  
     20800   299.41074     -77086.392      200.59182     -76885.8       -382.31368      52.963474      45.960647      47.452132     -26.418144     -0.66591051    -0.032932479  
     20900   302.27485     -77087.425      202.51064     -76884.915     -137.34118      52.877634      45.690854      47.568677     -26.478137     -0.56071272    -0.089386583  
     21000   297.24678     -77084.112      199.14207     -76884.97       351.99272      53.006321      45.716991      47.588534     -26.593692     -0.28497902    -0.10314085   
     21100   300.00437     -77083.288      200.98953     -76882.299     -142.38547      53.108412      45.889572      47.501504     -26.695509     -0.20607507    -0.067418823  
     21200   302.8208      -77085.311      202.87641     -76882.435      979.56145      53.045551      45.736602      47.487483     -26.465188     -0.20575103     0.010734357  
     21300   302.26241     -77085.127      202.50231     -76882.624     -690.84321      53.145257      45.689186      47.513659     -26.34306      -0.13683534    -0.044160181  
     21400   299.03492     -77085.555      200.34004     -76885.215      52.297314      53.100036      45.662924      47.433835     -26.359245     -0.13283229     0.05603225   
     21500   298.62295     -77083.707      200.06404     -76883.643      111.925        53.068864      45.704604      47.474155     -26.407194     -0.16943881     0.2638588    
     21600   293.54017     -77081.384      196.6588      -76884.725      9.1306749      53.056869      45.962782      47.378327     -26.451028     -0.23602208     0.28855751   
     21700   302.77798     -77084.945      202.84772     -76882.097      406.86937      52.810987      45.967146      47.384324     -26.363497     -0.29418843     0.11372039   
     21800   301.71654     -77082.431      202.13661     -76880.294      102.96561      52.855104      45.933695      47.533656     -26.479278     -0.13702689     0.15560981   
     21900   301.85534     -77081.724      202.2296      -76879.494     -317.45009      52.891243      45.936628      47.358882     -26.57833      -0.016824574    0.17287409   
     22000   306.19181     -77087.202      205.13484     -76882.067     -68.932879      52.923045      45.819801      47.371696     -26.542208     -0.039442289    0.18628547   
     22100   304.13503     -77085.022      203.75688     -76881.265     -485.90362      53.062462      45.746112      47.527172     -26.451079     -0.030844069    0.26893124   
     22200   301.38856     -77085.47       201.91687     -76883.554      812.12009      53.068565      45.772549      47.40873      -26.291021      0.12071174     0.39139654   
     22300   301.66556     -77087.317      202.10245     -76885.214     -506.40415      52.847702      45.926039      47.457388     -26.055802      0.041701493    0.73109553   
     22400   301.07986     -77085.722      201.71006     -76884.012     -147.23635      52.669219      46.028558      47.534691     -25.948131     -0.018724543    0.79822121   
     22500   297.37644     -77083.181      199.22893     -76883.952     -182.25996      52.853726      46.021518      47.381683     -26.202841      0.15650243     0.84847656   
     22600   301.75802     -77086.233      202.16439     -76884.069      355.7265       52.886408      45.935479      47.362747     -26.327497      0.14432699     0.94464341   
     22700   302.38781     -77086.388      202.58633     -76883.801      374.44415      52.876227      45.904084      47.473826     -26.385883      0.087448804    0.7107638    
     22800   298.29082     -77083.428      199.84152     -76883.587     -638.99776      53.021452      45.807819      47.475912     -26.612418      0.29626866     0.53322091   
     22900   300.43514     -77086.509      201.27812     -76885.231      422.99628      52.958689      45.795853      47.426798     -26.683966      0.30018127     0.63484237   
     23000   299.72902     -77086.772      200.80506     -76885.967     -900.50617      52.886099      45.903374      47.504312     -26.601015      0.12810391     0.5473351    
     23100   301.39018     -77088.238      201.91796     -76886.32       454.45201      52.848259      45.890011      47.526651     -26.603291      0.11912327     0.44245763   
     23200   294.86018     -77083.954      197.54315     -76886.411      122.38406      53.01971       45.838487      47.534758     -26.717819      0.026034281    0.50764938   
     23300   297.59911     -77087.003      199.37811     -76887.625      269.46155      52.980695      45.846135      47.417171     -26.547562      0.066357493    0.48459085   
     23400   298.76135     -77087.271      200.15676     -76887.114     -630.13932      52.932326      45.953596      47.475974     -26.49982       0.12131863     0.4246487    
     23500   294.95041     -77086.44       197.6036      -76888.837     -86.694003      53.002042      45.943298      47.331264     -26.626251      0.11998433     0.45308331   
     23600   294.70555     -77088.45       197.43956     -76891.011      150.0916       52.998763      46.093025      47.255854     -26.399624      0.11257078     0.46406244   
     23700   294.77259     -77086.602      197.48447     -76889.118     -106.93702      52.987749      45.875685      47.472174     -26.327738     -0.079740376    0.30594406   
     23800   305.55553     -77091.142      204.70856     -76886.434      647.26512      52.874183      45.750141      47.346074     -26.440103     -0.19959267     0.27597      
     23900   297.6476      -77085.459      199.4106      -76886.048     -603.3116       52.975389      45.952662      47.26887      -26.456545     -0.19427738     0.34106149   
     24000   300.94815     -77085.661      201.62182     -76884.039      314.40595      52.90413       45.795263      47.397365     -26.404873     -0.35228391     0.0083967253 
     24100   294.84163     -77082.605      197.53072     -76885.074     -281.34495      52.883242      45.920655      47.527632     -26.466528     -0.39282088    -0.2058958    
     24200   301.08067     -77087.182      201.7106      -76885.472      47.984448      53.070594      45.84515       47.351248     -26.655475     -0.44638085    -0.22116214   
     24300   298.47975     -77085.565      199.9681      -76885.597      59.614968      53.140649      45.746878      47.306215     -26.726644     -0.63171618    -0.15969984   
     24400   297.45375     -77085.116      199.28073     -76885.835     -492.20948      53.030093      45.841523      47.454127     -26.668506     -0.63028502    -0.25295977   
     24500   300.13791     -77085.936      201.07899     -76884.857      543.37605      52.948119      45.820378      47.521041     -26.530498     -0.3410425     -0.16659753   
     24600   300.35315     -77084.019      201.2232      -76882.796     -558.20135      52.947096      46.012488      47.568442     -26.528105     -0.15619819    -0.19605061   
     24700   301.64329     -77082.626      202.08753     -76880.539      995.64196      52.842517      45.965109      47.440537     -26.481758     -0.27868128    -0.23182969   
     24800   302.05735     -77082.409      202.36493     -76880.044     -290.92667      52.802966      45.784908      47.483296     -26.472591     -0.20678147    -0.033491877  
     24900   303.69708     -77083.593      203.46348     -76880.13      -149.77132      52.962298      45.844283      47.479884     -26.641168     -0.049985346    0.055642129  
     25000   306.92119     -77086.039      205.62349     -76880.416     -130.98138      53.139067      45.784382      47.391946     -26.698794     -0.15881006    -0.03182783   
     25100   301.0627      -77084.399      201.69856     -76882.7        123.3847       53.078942      45.77127       47.474807     -26.569843     -0.17346701     0.093742031  
     25200   301.59838     -77083.685      202.05744     -76881.628      364.19254      52.744272      45.847397      47.487065     -26.297945      0.046706699    0.21241882   
     25300   305.02071     -77086.708      204.35025     -76882.358     -42.357551      52.819962      45.82629       47.49957      -26.330442      0.045610622    0.055999009  
     25400   302.13758     -77084.562      202.41868     -76882.143     -706.9959       52.927883      45.931194      47.507179     -26.429366     -0.14290597     0.061575319  
     25500   300.30342     -77083.116      201.18988     -76881.926      222.41633      52.946511      45.863192      47.350565     -26.27804      -0.038334285    0.21152891   
     25600   301.43762     -77086.854      201.94974     -76884.905      165.02459      52.975849      45.682621      47.453179     -26.254037      0.035307514    0.069806231  
     25700   302.05502     -77086.079      202.36337     -76883.716      344.58662      52.918805      45.736435      47.487121     -26.422875     -0.19880365    -0.2737669    
     25800   300.63006     -77084.434      201.40871     -76883.025     -119.41565      52.996902      45.799896      47.379167     -26.518558     -0.2494685     -0.20675643   
     25900   300.48524     -77083.433      201.31169     -76882.122     -524.87483      52.962702      45.82056       47.502047     -26.481098     -0.29726695    -0.3747792    
     26000   301.29171     -77083.329      201.85199     -76881.477      329.28076      52.846411      45.863715      47.532562     -26.476181     -0.4596824     -0.53165536   
     26100   301.24524     -77082.922      201.82085     -76881.101     -96.994943      52.932932      45.867121      47.470787     -26.533279     -0.48694034    -0.26753989   
     26200   306.53808     -77088.401      205.36682     -76883.034      67.297395      52.862698      45.824776      47.52269      -26.481247     -0.4394992     -0.18395693   
     26300   301.57462     -77087.615      202.04152     -76885.573      337.23074      52.753349      45.860403      47.475401     -26.529337     -0.41183032    -0.23638912   
     26400   297.60447     -77083.389      199.3817      -76884.007     -762.53098      52.936795      45.908203      47.540006     -26.653208     -0.4257177     -0.19033914   
     26500   302.01256     -77086.964      202.33493     -76884.629      262.34685      52.772932      45.753599      47.538997     -26.563764     -0.27256526    -0.23108047   
     26600   302.42094     -77087.951      202.60852     -76885.342     -140.44663      52.782336      45.771558      47.626934     -26.590757     -0.22377953    -0.28437592   
     26700   295.02963     -77083.008      197.65667     -76885.351      345.39228      53.135961      45.810212      47.4051       -26.777012     -0.21396179    -0.31261955   
     26800   303.64416     -77088.27       203.42802     -76884.842     -4.7408542      53.104493      45.912293      47.241462     -26.651357     -0.17764982    -0.24508416   
     26900   297.15039     -77086.145      199.07749     -76887.067     -514.18238      52.88908       45.871623      47.453073     -26.43844      -0.13496665    -0.2262888    
     27000   296.33314     -77085.664      198.52997     -76887.134      215.39714      52.801617      45.79403       47.382552     -26.394449     -0.16271322    -0.20894099   
     27100   296.43653     -77088.128      198.59923     -76889.528     -55.820454      52.950093      45.891463      47.34354      -26.500109     -0.2413685     -0.085982675  
     27200   295.66741     -77085.959      198.08396     -76887.875     -100.78631      53.062706      45.764401      47.532091     -26.622296     -0.39749957    -0.13125019   
     27300   298.62894     -77086.553      200.06805     -76886.484     -122.8982       53.053889      45.668228      47.487425     -26.541613     -0.18481125    -0.37259528   
     27400   299.79572     -77087.773      200.84974     -76886.924     -133.91802      53.194558      45.710377      47.432587     -26.422283     -0.11326211    -0.2209846    
     27500   294.38634     -77087.709      197.2257      -76890.484      143.76165      52.997066      45.68848       47.426638     -26.304213     -0.14731492    -0.068449359  
     27600   296.96893     -77088.772      198.95592     -76889.816      359.47812      52.892409      45.754918      47.502384     -26.260711      0.021430032   -0.25694465   
     27700   296.75489     -77087.565      198.81252     -76888.753     -679.27456      52.786139      45.900357      47.511518     -26.308719      0.093856716   -0.22024412   
     27800   293.18454     -77086.588      196.42055     -76890.168      618.68175      52.764648      45.913261      47.470938     -26.544306     -0.0074206753  -0.0853886    
     27900   294.84561     -77086.596      197.53339     -76889.063     -684.40171      52.889203      45.968422      47.463734     -26.854487      0.029486169   -0.39418341   
     28000   302.8054      -77089.688      202.86609     -76886.822     -16.083426      52.874519      45.872716      47.366733     -26.997483      0.033558447   -0.48505033   
     28100   299.66984     -77087.781      200.76541     -76887.016      670.96403      52.765616      45.749919      47.451116     -26.833883     -0.01086483    -0.24759615   
     28200   298.94432     -77090.863      200.27934     -76890.584     -749.67487      52.828395      45.917698      47.506572     -26.640217     -0.059860254   -0.18113917   
     28300   293.57577     -77087.881      196.68265     -76891.199      192.30166      52.867463      46.02984       47.428199     -26.549074     -0.0547091     -0.30481238   
     28400   296.30897     -77089.376      198.51377     -76890.863      371.1242       52.845202      45.813062      47.513886     -26.423531     -0.076236523   -0.23736814   
     28500   296.62312     -77088.857      198.72424     -76890.133     -371.80879      52.91033       45.869173      47.521867     -26.218339     -0.051726999   -0.098678508  
     28600   293.32437     -77085.334      196.51423     -76888.82       580.55438      52.895482      45.821983      47.381613     -26.397585      0.090698773   -0.2105749    
     28700   303.544       -77090.992      203.36092     -76887.631     -765.83082      52.972713      45.781261      47.411797     -26.65905       0.16871665    -0.32436532   
     28800   295.36419     -77086.145      197.88081     -76888.264      68.328927      53.065401      45.744615      47.496665     -26.555605      0.23221585    -0.2121853    
     28900   296.2711      -77087.001      198.4884      -76888.513      371.47084      52.866476      45.839521      47.367711     -26.583778      0.19567689    -0.2546512    
     29000   296.01333     -77084.869      198.31571     -76886.553      49.791629      53.068298      45.833794      47.397918     -26.895178      0.14148651    -0.37767596   
     29100   292.91172     -77083.431      196.23777     -76887.193     -229.31652      53.04141       45.883399      47.42462      -26.607999      0.070752262   -0.21725805   
     29200   297.61454     -77085.974      199.38845     -76886.586      216.64716      52.893402      45.933125      47.409302     -26.330913      0.059234944   -0.24465806   
     29300   298.26892     -77087.953      199.82685     -76888.126     -32.420458      52.984341      45.88025       47.484411     -26.439217      0.019433732   -0.33072017   
     29400   298.67613     -77088.487      200.09967     -76888.387      170.29629      52.969962      45.72804       47.507353     -26.464191      0.0078089809  -0.31823226   
     29500   293.08446     -77086.906      196.3535      -76890.553      734.93934      52.941344      45.74549       47.5121       -26.330889     -0.18184147    -0.28405024   
     29600   297.70526     -77089.894      199.44922     -76890.445     -9.4639111      52.936967      45.868519      47.370179     -26.432001     -0.48151533    -0.21848026   
     29700   297.72741     -77088.109      199.46407     -76888.645     -304.42984      52.88618       45.937314      47.363981     -26.589295     -0.5503442     -0.26626783   
     29800   298.14532     -77089.978      199.74404     -76890.234      14.88076       52.763644      45.970526      47.417696     -26.560389     -0.57598751    -0.255863     
     29900   288.66684     -77080.968      193.39389     -76887.574      90.126617      52.905522      46.046088      47.406536     -26.44961      -0.75238741    -0.0026037099 
     30000   299.80827     -77087.228      200.85815     -76886.37       273.38411      53.158397      45.877546      47.208961     -26.558917     -0.75880114     0.0503652    
     30100   300.53618     -77087.468      201.34582     -76886.123      98.338085      53.074335      45.840578      47.239933     -26.607415     -0.58260114     0.081494589  
     30200   299.00589     -77087.919      200.32059     -76887.599      227.52902      53.185447      45.715293      47.361579     -26.66667      -0.64383295     0.30640443   
     30300   298.66524     -77086.621      200.09237     -76886.529     -264.57775      53.141793      45.674555      47.397243     -26.605296     -0.63336854     0.30089092   
     30400   297.28839     -77085.997      199.16994     -76886.827      269.11568      53.142586      45.866531      47.370769     -26.431349     -0.38015795     0.27568059   
     30500   297.77379     -77085.664      199.49514     -76886.169     -13.316652      53.263379      45.742672      47.357609     -26.531375     -0.18505907     0.35632347   
     30600   298.48072     -77084.321      199.96875     -76884.353      45.341965      53.2264        45.758207      47.410493     -26.566377     -0.19678756     0.26233227   
     30700   301.45767     -77084.864      201.96317     -76882.901     -247.53457      53.106979      45.856624      47.373002     -26.436167     -0.0087131736   0.10078292   
     30800   300.97927     -77084.38       201.64266     -76882.737      287.87671      53.028372      45.729728      47.406404     -26.554687      0.16991421     0.15223846   
     30900   298.84693     -77082.756      200.2141      -76882.542      290.4721       52.940604      45.740041      47.516394     -26.580538      0.11785652     0.095111777  
     31000   297.30244     -77080.412      199.17935     -76881.232     -42.116999      53.027041      45.816266      47.482813     -26.470011      0.015720453   -0.089763444  
     31100   302.23363     -77085.669      202.48303     -76883.186      837.47934      52.930284      45.827501      47.515993     -26.36003       0.10090291    -0.22521978   
     31200   298.81956     -77084.223      200.19576     -76884.027     -854.1239       52.922753      45.87261       47.537404     -26.362941      0.031427706   -0.16227834   
     31300   301.42773     -77084.132      201.94311     -76882.189      785.27885      52.949637      45.873406      47.303585     -26.378977     -0.1201585      0.011390086  
     31400   301.27753     -77085.173      201.84249     -76883.33      -112.71039      53.018761      45.957727      47.351483     -26.386515     -0.13222571    -0.087860527  
     31500   298.20652     -77082.452      199.78505     -76882.667     -149.34277      52.816436      45.91778       47.488827     -26.410232     -0.17390148    -0.26590939   
     31600   303.89966     -77087.707      203.5992      -76884.108      142.76773      52.668635      45.862283      47.37143      -26.465615     -0.21954699    -0.26597449   
     31700   296.68466     -77083.635      198.76547     -76884.869     -824.0402       52.849755      45.953264      47.414562     -26.430887     -0.16316709    -0.33032272   
     31800   303.24245     -77087.68       203.1589      -76884.521      561.33904      52.740709      45.821891      47.553155     -26.398726     -0.13005966    -0.3962558    
     31900   296.82723     -77083.864      198.86098     -76885.003     -114.81307      52.980933      45.825589      47.577841     -26.477434     -0.11026649    -0.45351704   
     32000   300.27594     -77085.965      201.17146     -76884.794     -154.26451      53.167176      45.688725      47.323546     -26.529598     -0.036446301   -0.4692341    
     32100   298.29851     -77083.416      199.84668     -76883.569      195.30905      53.054404      45.660095      47.45705      -26.63032       0.15401311    -0.52304457   
     32200   299.54858     -77084.328      200.68417     -76883.643     -280.93634      52.927299      45.784872      47.499536     -26.464279      0.1602838     -0.44875499   
     32300   303.62703     -77087.312      203.41655     -76883.896      201.89597      52.84728       46.058473      47.343093     -26.39363       0.17993223    -0.28829941   
     32400   301.969       -77086.961      202.30574     -76884.655     -372.34284      52.758707      45.990201      47.418983     -26.480091      0.37664716    -0.22915437   
     32500   301.53859     -77087.553      202.01738     -76885.535      583.35711      52.679983      45.765125      47.542369     -26.275498      0.48547088    -0.17863611   
     32600   299.84839     -77088.1        200.88503     -76887.215     -694.13313      52.847909      45.725162      47.5162       -26.383511      0.38210805     0.00038928774
     32700   299.0907      -77089.045      200.37741     -76888.668      401.71306      52.908681      45.642533      47.412434     -26.516697      0.38608664    -0.10199422   
     32800   297.60741     -77089.266      199.38367     -76889.882     -508.9771       52.888835      45.678964      47.545768     -26.335672      0.41147049    -0.22275628   
     32900   298.5949      -77088.384      200.04524     -76888.338      31.331907      52.96879       45.820398      47.485453     -26.314082      0.33553092    -0.032925614  
     33000   295.08467     -77085.265      197.69355     -76887.572      44.840544      52.79958       45.958182      47.354125     -26.291963      0.21271727     0.039163293  
     33100   295.7209      -77087.489      198.1198      -76889.369     -13.513157      52.573278      46.07809       47.398573     -26.214029      0.21276012    -0.019597325  
     33200   296.49651     -77087.469      198.63942     -76888.829     -348.59271      52.595866      46.02268       47.441396     -26.4402        0.26563739     0.00056663335
     33300   295.73278     -77086.98       198.12775     -76888.852      266.36668      52.608931      46.044264      47.427658     -26.630208      0.33021104     0.18646133   
     33400   298.14492     -77089.966      199.74378     -76890.222     -72.826472      52.775053      45.961836      47.404608     -26.743558      0.42540014     0.10166887   
     33500   294.34252     -77087.687      197.19634     -76890.491     -576.78515      52.970876      45.884888      47.414084     -26.786255      0.33659219    -0.068479338  
     33600   293.40289     -77087.173      196.56683     -76890.606      994.98158      52.992998      45.700315      47.260774     -26.67979       0.24013934     0.17662078   
     33700   295.89458     -77086.082      198.23615     -76887.846     -735.04948      53.087014      45.772873      47.433937     -26.586661      0.29037415     0.27509329   
     33800   301.79801     -77089.311      202.19119     -76887.12       477.07896      53.023013      45.705287      47.389742     -26.454496      0.45417767     0.024810163  
     33900   299.90178     -77088.37       200.9208      -76887.449      26.21297       53.023971      45.710531      47.306427     -26.598992      0.35059695     0.10996099   
     34000   295.57504     -77084.843      198.02207     -76886.821     -206.78852      52.945459      45.862281      47.556912     -26.595452      0.35970035     0.21767561   
     34100   298.47537     -77089.017      199.96516     -76889.052      239.22182      52.849007      45.832161      47.48279      -26.550465      0.69392204     0.10815513   
     34200   297.40682     -77087.631      199.24928     -76888.381     -279.54616      52.937743      45.778602      47.445879     -26.729203      0.58171152     0.19344367   
     34300   298.53814     -77088.908      200.00722     -76888.901      56.908435      52.800673      45.793564      47.404096     -26.587271      0.45303725     0.21017575   
     34400   297.88303     -77087.479      199.56832     -76887.91       172.19083      52.780331      45.874018      47.426371     -26.365836      0.65613147     0.26720083   
     34500   298.40107     -77091.034      199.91539     -76891.119     -78.078589      52.950013      45.73897       47.505255     -26.497635      0.58888495     0.53756325   
     34600   298.36773     -77089.111      199.89305     -76889.218     -137.96659      52.864621      45.772813      47.430634     -26.42567       0.38485549     0.60991684   
     34700   293.7826      -77087.154      196.82122     -76890.333      378.41869      52.843994      45.794517      47.412212     -26.267016      0.30144503     0.73023255   
     34800   295.97199     -77087.685      198.28801     -76889.397      7.1902373      52.820432      45.762661      47.476567     -26.203281      0.23456482     0.76411005   
     34900   297.66431     -77090.097      199.42179     -76890.675      222.51279      52.912994      45.843352      47.397135     -26.46714      -0.041708331    0.78731702   
     35000   295.46577     -77088.006      197.94887     -76890.057     -102.7064       52.895945      45.91344       47.388798     -26.725618     -0.15564466     0.91990778   
     35100   295.14834     -77087.804      197.73621     -76890.068     -191.3992       52.763567      45.961017      47.466696     -26.727737     -0.074537635    0.95805664   
     35200   293.69589     -77086.285      196.76313     -76889.521      27.132915      52.81224       45.805135      47.513588     -26.895953     -0.10514669     0.99270584   
     35300   294.72375     -77086.586      197.45175     -76889.134      406.46607      52.822232      45.801258      47.536758     -26.933864     -0.086794012    1.0456831    
     35400   300.67268     -77087.63       201.43727     -76886.193     -24.986097      52.878955      45.777205      47.501965     -26.811225     -0.013448964    0.86180906   
     35500   298.72809     -77086.142      200.13447     -76886.008     -57.483414      52.952863      45.797456      47.439953     -26.476211      0.0046061769   0.74959061   
     35600   299.62974     -77085.97       200.73854     -76885.232      281.10042      52.81822       45.722309      47.543964     -26.113061      0.13009027     0.55197292   
     35700   302.66653     -77085.527      202.77305     -76882.754     -250.27749      52.915961      45.806773      47.533975     -26.085807      0.17488802     0.26799893   
     35800   298.94843     -77084.01       200.28209     -76883.728     -354.8238       52.920168      45.844785      47.36499      -26.175644      0.075525925    0.12645579   
     35900   303.04903     -77086.639      203.02932     -76883.61       278.60564      52.788792      45.816725      47.414726     -26.385694      0.083677339    0.074775893  
     36000   297.35652     -77081.256      199.21559     -76882.041      83.46832       52.849275      45.692635      47.568324     -26.523728      0.11218034     0.018319944  
     36100   297.11151     -77083.243      199.05144     -76884.191     -391.18498      52.905524      45.819909      47.448517     -26.553386     -0.042598319   -0.038360157  
     36200   303.20036     -77087.741      203.1307      -76884.611      71.394912      52.884799      45.832081      47.405269     -26.605683     -0.082406894   -0.19944169   
     36300   298.41322     -77084.19       199.92353     -76884.266     -593.88162      52.663648      45.727259      47.650821     -26.577371     -0.076677322   -0.38832917   
     36400   300.40352     -77084.876      201.25694     -76883.619      512.16699      52.693594      45.856116      47.554549     -26.586901     -0.34462278    -0.64322142   
     36500   302.66131     -77085.781      202.76956     -76883.012      2.3886474      53.042582      45.824166      47.32943      -26.700962     -0.40134345    -0.78193388   
     36600   304.58992     -77087.55       204.06164     -76883.488     -39.505738      52.852878      45.794546      47.401082     -26.526569     -0.25731951    -0.93498346   
     36700   299.50912     -77085.003      200.65773     -76884.345     -4.1045869      52.997871      45.629859      47.557669     -26.481697     -0.2018726     -1.0371838    
     36800   302.79332     -77088.167      202.858       -76885.309     -70.65563       53.065693      45.725953      47.378656     -26.451208     -0.15558157    -0.9562852    
     36900   297.919       -77084.7        199.59243     -76885.108      267.93469      53.039072      45.828844      47.313346     -26.468047     -0.092087441   -0.98926994   
     37000   297.43179     -77083.85       199.26601     -76884.584     -55.667382      53.025621      45.781418      47.41899      -26.467273      0.027603338   -1.095968     
     37100   298.14905     -77084.357      199.74655     -76884.61       539.38366      52.656486      46.021189      47.436861     -26.263337     -0.03091016    -1.2342963    
     37200   301.65929     -77088.234      202.09825     -76886.136      65.756899      52.701158      46.080395      47.337315     -26.341293     -0.011293588   -1.3785086    
     37300   300.01355     -77086.66       200.99568     -76885.665     -285.34547      52.74047       46.171418      47.313988     -26.41691       0.13255467    -1.5245783    
     37400   301.18269     -77089.053      201.77895     -76887.274     -20.064384      52.514081      46.207863      47.349707     -26.293735      0.25051711    -1.5154376    
     37500   292.59626     -77083.055      196.02642     -76887.028      544.21244      52.80088       45.94676       47.369382     -26.445618      0.247511      -1.4966262    
     37600   295.29227     -77081.81       197.83263     -76883.977     -239.2013       52.935715      45.894062      47.343831     -26.574328      0.25619844    -1.4642704    
     37700   302.30792     -77085.394      202.5328      -76882.861     -105.78301      52.92268       45.973884      47.302398     -26.533525      0.28542855    -1.4593803    
     37800   304.01846     -77085.248      203.67879     -76881.569     -46.017399      53.059096      45.95911       47.26592      -26.549797      0.26006507    -1.4713233    
     37900   305.62932     -77086.025      204.75799     -76881.267     -337.24977      52.78          45.983674      47.478451     -26.29416       0.26296691    -1.3416518    
     38000   299.4129      -77083.784      200.59327     -76883.19       550.92799      52.720886      45.944158      47.511682     -26.129893      0.17504897    -1.2914621    
     38100   302.94499     -77085.736      202.95961     -76882.777     -248.55924      52.882585      46.016424      47.160034     -26.125348      0.15164289    -1.2694581    
     38200   304.59207     -77084.075      204.06308     -76880.012     -135.10217      52.889671      45.99409       47.35685      -26.214779      0.21189803    -1.0684729    
     38300   301.98293     -77082.51       202.31508     -76880.195      7.3047289      52.881312      45.853882      47.432353     -26.266251      0.071868191   -0.80441022   
     38400   307.52708     -77086.876      206.02941     -76880.846      223.68374      52.915761      45.900763      47.329515     -26.325523     -0.013833904   -0.70252346   
     38500   301.80168     -77083.126      202.19365     -76880.932     -358.19366      52.895072      45.953103      47.400298     -26.323114     -0.002912915   -0.62652468   
     38600   301.68766     -77082.423      202.11726     -76880.305      23.649999      52.926392      45.902801      47.458151     -26.357496     -0.031408588   -0.35822355   
     38700   302.45885     -77081.834      202.63392     -76879.2       -276.51248      52.932         45.91882       47.418374     -26.362573      0.013704357   -0.25037716   
     38800   305.71348     -77082.761      204.81438     -76877.947      495.03573      52.757038      46.020992      47.303295     -26.359315      0.021057782   -0.48920723   
     38900   304.70321     -77081.205      204.13754     -76877.067      372.29664      53.010457      45.892755      47.339187     -26.643769      0.026682605   -0.34792767   
     39000   303.91331     -77080.197      203.60834     -76876.588     -395.93244      53.058767      45.884412      47.337409     -26.732012      0.17825427    -0.18980022   
     39100   304.48451     -77080.719      203.99102     -76876.728      257.07093      53.120338      45.839224      47.222399     -26.687237      0.29966986    -0.56076193   
     39200   304.29563     -77082.519      203.86448     -76878.654     -343.44432      53.112573      45.741358      47.381637     -26.61589       0.16347108    -0.60988888   
     39300   303.14516     -77082.801      203.09372     -76879.707      393.98954      52.945211      45.80924       47.465054     -26.525369      0.1409254     -0.42392504   
     39400   304.31869     -77082.686      203.87993     -76878.806     -91.036942      53.114164      45.628947      47.456531     -26.48323       0.18980057    -0.63847736   
     39500   305.54451     -77083.088      204.70117     -76878.386     -256.7169       52.958322      45.710993      47.496081     -26.278682     -0.016515694   -0.63697044   
     39600   299.39086     -77080.217      200.5785      -76879.639     -266.95388      53.042098      45.784955      47.446677     -26.30785      -0.19873222    -0.6216284    
     39700   305.86081     -77082.871      204.91308     -76877.958      544.04837      53.135354      45.660645      47.482858     -26.369642     -0.24924702    -0.63664148   
     39800   308.45525     -77084.426      206.65124     -76877.774     -297.09004      52.886188      45.832995      47.554426     -26.370689     -0.48068294    -0.6097404    
     39900   303.71297     -77080.54       203.47412     -76877.066      152.22033      52.888356      45.824524      47.467371     -26.42892      -0.4344409     -0.59115918   
     40000   305.30568     -77085.046      204.54116     -76880.505     -305.00217      52.912974      45.782317      47.445141     -26.444132     -0.19841435    -0.67664655   
     40100   307.19506     -77085.314      205.80697     -76879.507      125.96485      52.856676      45.776719      47.604696     -26.482876     -0.11789026    -0.58540933   
     40200   307.39486     -77087.302      205.94083     -76881.361      216.16449      52.975898      45.66189       47.479875     -26.553823     -0.039624819   -0.54140395   
     40300   300.66063     -77085.234      201.42919     -76883.805     -508.53309      52.972593      45.767698      47.440808     -26.401379      0.21008711    -0.61661922   
     40400   297.90862     -77084.157      199.58547     -76884.572      373.32232      52.843509      45.755986      47.460302     -26.277131      0.27719118    -0.4712376    
     40500   300.76947     -77086.804      201.50211     -76885.302     -73.079405      52.891945      45.766659      47.509113     -26.35902       0.22643718    -0.22380605   
     40600   301.69849     -77087.073      202.12451     -76884.949      313.03389      53.017045      45.823105      47.386953     -26.358987      0.16294864    -0.11358033   
     40700   298.60297     -77083.961      200.05065     -76883.91      -587.89365      53.104336      45.828914      47.300072     -26.452261      0.15871839     0.073253103  
     40800   299.72739     -77084.981      200.80396     -76884.178     -110.67877      52.982378      45.661712      47.505701     -26.523316     -0.093328329    0.31148766   
     40900   306.39319     -77088.592      205.26975     -76883.323      241.19312      52.888629      45.672405      47.533212     -26.481241     -0.058678532    0.60437705   
     41000   304.17854     -77085.614      203.78603     -76881.828      456.8143       53.007309      45.820718      47.359208     -26.425856      0.20828462     0.68832955   
     41100   296.69679     -77081.938      198.7736      -76883.164     -208.459        52.830417      45.959988      47.476934     -26.18585       0.14855635     0.86150985   
     41200   301.93868     -77085.221      202.28543     -76882.936     -389.62774      52.736537      45.993808      47.403898     -26.15912       0.18849143     0.89475064   
     41300   297.18783     -77084.47       199.10257     -76885.367     -231.55494      52.889961      45.891324      47.370074     -26.328684      0.52541515     0.861076     
     41400   297.34601     -77085.277      199.20854     -76886.069     -31.518987      52.881588      45.952907      47.414156     -26.449569      0.57879044     0.93219587   
     41500   302.38543     -77087.612      202.58473     -76885.027      36.741992      52.850916      45.98592       47.445502     -26.639153      0.4635332      0.98182918   
     41600   298.8142      -77085.238      200.19217     -76885.046      182.60049      52.773418      45.888222      47.462811     -26.681999      0.59718427     0.97885862   
     41700   297.76288     -77087.654      199.48783     -76888.166     -599.41107      52.573184      45.86637       47.563441     -26.729296      0.58553428     1.0098981    
     41800   295.20892     -77085.109      197.77679     -76887.332     -412.36999      52.688335      45.940967      47.577908     -26.826081      0.39524157     0.99598818   
     41900   294.73717     -77085.271      197.46074     -76887.81       529.39978      52.802018      45.905824      47.390138     -26.643941      0.4740382      0.86393383   
     42000   295.64546     -77084.506      198.06925     -76886.437      64.003639      52.932453      45.866526      47.531984     -26.501395      0.44169636     0.65941226   
     42100   304.66664     -77092.534      204.11304     -76888.421     -236.2069       52.934989      45.585652      47.535844     -26.400243      0.28416389     0.59306533   
     42200   291.41209     -77085.64       195.23308     -76890.407      66.469031      53.005528      45.647705      47.47491      -26.260968      0.33107442     0.43857418   
     42300   295.42617     -77087.236      197.92234     -76889.314     -308.32888      52.894081      45.717648      47.509448     -26.069649      0.31003332     0.41343976   
     42400   296.66732     -77087.765      198.75385     -76889.011      575.902        52.776736      45.746684      47.507928     -26.112575      0.28163798     0.4347964    
     42500   298.0873      -77087.389      199.70518     -76887.684     -427.01237      52.875117      45.821685      47.443658     -26.37696       0.48244644     0.46808956   
[...]
     89800   299.74616     -77091.219      200.81654     -76890.402     -609.26358      52.854342      45.752738      47.415316     -26.487045     -0.35869568    -0.077342793  
     89900   292.74981     -77087.553      196.1293      -76891.424      517.84123      52.656348      45.842077      47.379143     -26.261557     -0.36837996    -0.048691759  
     90000   293.35822     -77088.592      196.5369      -76892.055      7.0922849      52.6233        45.966661      47.378653     -26.249127     -0.28872122     0.016791076  
     90100   293.7813      -77089.115      196.82035     -76892.295     -378.53392      52.66559       45.872836      47.386415     -26.256749     -0.059892571    0.095759934  
     90200   293.46255     -77089.094      196.6068      -76892.487      118.11494      52.638743      45.830121      47.47748      -26.228295     -0.040640143    0.082904796  
     90300   293.24124     -77087.965      196.45853     -76891.506     -693.32778      52.806483      45.776807      47.447434     -26.448711     -0.17713874     0.11687471   
     90400   293.27678     -77089.913      196.48234     -76893.431      1071.6846      52.849899      45.586825      47.383496     -26.57318      -0.15216914     0.091420603  
     90500   297.2412      -77092.672      199.13832     -76893.533     -494.67166      52.647226      45.742354      47.617769     -26.537699     -0.070545456    0.028451389  
     90600   296.77543     -77093.195      198.82628     -76894.368      537.56113      52.578508      45.748857      47.499665     -26.499145     -0.19012244    -0.053365587  
     90700   292.89096     -77090.78       196.22386     -76894.556     -106.2889       52.668943      45.897715      47.30958      -26.404973     -0.074340173   -0.25723986   
     90800   292.60163     -77091.976      196.03002     -76895.946     -366.43931      52.616368      45.958405      47.493262     -26.203404      0.12016901    -0.30813515   
     90900   296.95807     -77093.605      198.94864     -76894.657      1101.0286      52.647411      45.737722      47.449143     -26.132483      0.00972988    -0.30372874   
     91000   291.41961     -77088.516      195.23812     -76893.278     -367.00074      52.887592      45.729294      47.358969     -26.295383     -0.057587181   -0.32308022   
     91100   296.6914      -77091.707      198.76999     -76892.937      174.83875      52.909628      45.674917      47.307213     -26.381193      0.0019213668  -0.51062963   
     91200   286.5974      -77085.353      192.00745     -76893.346     -100.29944      52.958144      45.648331      47.496582     -26.451013     -0.074515248   -0.61187108   
     91300   294.13052     -77089.01       197.05431     -76891.956     -173.06575      52.8566        45.63801       47.570758     -26.393565     -0.032972686   -0.31873937   
     91400   289.49956     -77087.376      193.95177     -76893.425      153.33506      52.840883      45.592288      47.469767     -26.344901      0.026233923   -0.29410468   
     91500   298.49716     -77093.678      199.97977     -76893.699      195.62681      52.780191      45.687748      47.401878     -26.351424      0.051301199   -0.42563947   
     91600   295.90603     -77092.461      198.24383     -76894.218     -172.02445      52.649249      45.641686      47.516357     -26.492777      0.18470391    -0.035302133  
     91700   296.01578     -77092.732      198.31735     -76894.415      160.70319      52.659727      45.698608      47.501832     -26.553545      0.23705988     0.055790781  
     91800   291.72883     -77091.619      195.44528     -76896.174     -421.73032      52.845361      45.81614       47.435701     -26.473506      0.26334996    -0.20226537   
     91900   295.33766     -77092.948      197.86304     -76895.085      255.91807      52.769061      45.644925      47.427147     -26.424521      0.29017505    -0.10247897   
     92000   291.23684     -77089.343      195.11568     -76894.227     -207.30847      52.69928       45.595943      47.50121      -26.432643      0.21835327     0.071483758  
     92100   290.66392     -77091.187      194.73184     -76896.455      174.63526      52.655674      45.720168      47.473206     -26.376328      0.19179108    -0.15206538   
     92200   293.42558     -77092.026      196.58203     -76895.444     -299.66066      52.675978      45.802423      47.585515     -26.39503       0.13979198    -0.23879934   
     92300   295.47887     -77092.853      197.95765     -76894.896      422.96416      52.706814      45.746348      47.499803     -26.389746      0.032701305   -0.18158859   
     92400   296.11177     -77091.506      198.38166     -76893.124      59.488796      52.899953      45.575954      47.397749     -26.537905     -0.080408223   -0.50576959   
     92500   297.43063     -77091.416      199.26524     -76892.151      13.65725       52.786209      45.65122       47.452375     -26.522384      0.016001439   -0.62563192   
     92600   292.57525     -77085.646      196.01235     -76889.634      27.989261      52.699981      45.770196      47.522987     -26.365474     -0.03730558    -0.51310341   
     92700   300.63431     -77090.515      201.41156     -76889.104      78.440161      52.673739      45.899912      47.404226     -26.255656     -0.32699288    -0.57006517   
     92800   302.28038     -77091.021      202.51435     -76888.507     -610.63724      52.79621       45.85901       47.421704     -26.416487     -0.28656434    -0.54707367   
     92900   293.21643     -77083.716      196.44191     -76887.274      402.39976      52.862531      45.611669      47.378925     -26.533384     -0.19066993    -0.33680393   
     93000   306.64983     -77089.887      205.44169     -76884.446     -178.95985      52.807955      45.668633      47.393841     -26.336554     -0.35165047    -0.30830901   
     93100   297.49778     -77082.837      199.31022     -76883.527      83.223694      52.83152       45.864046      47.402355     -26.369439     -0.36243137    -0.25211499   
     93200   304.49009     -77086.042      203.99476     -76882.048      1061.4826      52.738376      45.845464      47.36413      -26.410053     -0.096066641   -0.081206751  
     93300   304.50972     -77085.208      204.00791     -76881.2       -618.05498      52.703155      45.829376      47.436318     -26.216954     -0.042580462   -0.16272141   
     93400   306.95076     -77085.771      205.6433      -76880.127      215.96358      52.731382      45.613439      47.380325     -26.173161     -0.066818381   -0.16600884   
     93500   301.90969     -77082.911      202.266       -76880.645      74.403961      52.952023      45.665788      47.46511      -26.344519     -0.046608432   -0.030228331  
     93600   303.86978     -77085.614      203.57918     -76882.035      5.7424241      52.965535      45.760819      47.457401     -26.305211     -0.083726706    0.1546647    
     93700   304.78404     -77087.47       204.1917      -76883.279      300.4789       52.721349      45.794616      47.410065     -26.050689     -0.19709609     0.18099159   
     93800   296.13634     -77081.122      198.39812     -76882.724     -735.42482      52.583402      45.830575      47.454739     -26.042581     -0.18529938     0.21780472   
     93900   301.01758     -77083.966      201.66833     -76882.298      731.02098      52.706426      45.748383      47.419233     -26.328191     -0.12844796     0.44575174   
     94000   298.43911     -77080.738      199.94087     -76880.797     -1005.2567      52.815628      45.891976      47.524515     -26.561357     -0.070457637    0.39617559   
     94100   309.03636     -77087.273      207.04056     -76880.232      1418.8721      52.881314      45.675443      47.393739     -26.633808      0.083040535    0.30299032   
     94200   303.67144     -77084.812      203.4463      -76881.366     -515.86612      52.916857      45.485381      47.484895     -26.656239      0.13230649     0.47983255   
     94300   308.31595     -77087.705      206.55791     -76881.148      586.98061      52.920419      45.591053      47.470562     -26.503856      0.18861814     0.46412495   
     94400   299.57751     -77084.357      200.70355     -76883.654     -496.72519      53.044156      45.596824      47.464337     -26.538716      0.22544597     0.45161844   
     94500   304.00719     -77085.24       203.67123     -76881.569      342.33702      52.978748      45.694054      47.444914     -26.541462      0.39074925     0.5921982    
     94600   302.03951     -77084.582      202.35298     -76882.229      99.910361      52.804839      45.58695       47.470732     -26.437493      0.39186889     0.83337008   
     94700   299.06268     -77083.362      200.35864     -76883.003      449.41969      52.809165      45.685102      47.438468     -26.502603      0.31714823     0.76243776   
     94800   303.68518     -77085.601      203.45551     -76882.145     -1135.8142      52.99184       45.849844      47.192659     -26.536936      0.51743745     0.74200943   
     94900   302.09846     -77087.167      202.39247     -76884.774      383.66743      52.805891      45.728174      47.355908     -26.35798       0.32883355     0.99930848   
     95000   301.2898      -77087.472      201.85071     -76885.621      232.14701      52.666657      45.747486      47.417044     -26.320453      0.10196348     1.0282276    
     95100   304.49981     -77089.26       204.00127     -76885.258     -335.48305      52.84145       45.810706      47.365598     -26.476699      0.20965046     1.0745415    
     95200   301.03958     -77087.417      201.68307     -76885.733      10.696335      52.827382      45.682204      47.376397     -26.495183      0.16819335     1.1748796    
     95300   299.33858     -77087.275      200.54348     -76886.731     -566.43574      53.054973      45.562937      47.476009     -26.426776     -0.12077298     1.146641     
     95400   295.23044     -77084.092      197.79121     -76886.301      1040.9858      53.070887      45.569613      47.393234     -26.302202     -0.15189211     1.0069598    
     95500   299.51478     -77088.114      200.66152     -76887.452      202.40816      52.887128      45.724505      47.331985     -26.260683     -0.15554197     0.79164987   
     95600   295.36693     -77084.007      197.88265     -76886.125     -397.26303      52.792193      45.796185      47.502223     -26.356183     -0.34327914     0.62659506   
     95700   296.56366     -77084.388      198.6844      -76885.704      396.19195      52.675151      45.753489      47.46778      -26.348251     -0.45662685     0.34279486   
     95800   302.86455     -77087.656      202.90572     -76884.75      -260.2834       52.663454      45.794201      47.38902      -26.478105     -0.37376156     0.089922681  
     95900   301.90024     -77088.905      202.25968     -76886.645      27.153994      52.831197      45.599609      47.410858     -26.684819     -0.35455575    -0.053060033  
     96000   302.17072     -77087.902      202.44089     -76885.461      183.48884      52.896238      45.637666      47.489762     -26.67554      -0.41497876    -0.11372158   
     96100   296.58403     -77084.689      198.69805     -76885.991      55.905241      52.918764      45.828381      47.361461     -26.521849     -0.34634337    -0.05223226   
     96200   301.06753     -77086.247      201.7018      -76884.546     -259.30867      52.858073      45.79483       47.316118     -26.31491      -0.20211864     0.020108038  
     96300   301.16303     -77083.872      201.76578     -76882.106      175.74396      52.691338      45.794807      47.579041     -26.079998     -0.24602536     0.043536089  
     96400   303.21148     -77083.738      203.13815     -76880.6        132.00283      52.597191      45.807155      47.498898     -26.038989     -0.15680982     0.1948631    
     96500   300.87508     -77083.488      201.57287     -76881.915      297.4182       52.809489      45.650045      47.397963     -26.293526     -0.11029909     0.30036515   
     96600   302.15566     -77083.67       202.43079     -76881.239     -44.383287      52.85864       45.599477      47.564695     -26.291451     -0.21466757     0.17891754   
     96700   305.85434     -77087.322      204.90874     -76882.413      175.21791      52.695408      45.759032      47.461226     -26.264375     -0.27271794     0.079087479  
     96800   296.96596     -77082.422      198.95393     -76883.468     -265.55963      52.860215      45.844896      47.363235     -26.608035     -0.20313449     0.059308826  
     96900   302.71999     -77086.713      202.80887     -76883.904      487.70004      52.63187       45.832664      47.444367     -26.430933     -0.14290444    -0.026865187  
     97000   303.12537     -77088.301      203.08046     -76885.221     -406.13656      52.66502       45.795503      47.507079     -26.151119     -0.11729552    -0.064283106  
     97100   297.9098      -77086.252      199.58626     -76886.666      296.08674      52.752641      45.731154      47.453642     -26.205048     -0.15762379    -0.044666109  
     97200   303.93309     -77088.733      203.6216      -76885.112     -30.272212      52.660312      45.680995      47.563329     -26.377194     -0.20679489    -0.012070863  
     97300   303.68477     -77087.838      203.45523     -76884.383      226.87129      52.796378      45.571986      47.516782     -26.571793     -0.30325351     0.0023119166 
     97400   297.7006      -77082.389      199.4461      -76882.943      134.46745      52.857823      45.750771      47.377281     -26.58585      -0.40901207    -0.10821596   
     97500   300.52912     -77085.965      201.34108     -76884.624     -339.74138      52.535464      45.842457      47.51565      -26.412533     -0.45044252    -0.16117456   
     97600   299.78363     -77084.315      200.84164     -76883.473      341.03388      52.484353      45.802892      47.633597     -26.378781     -0.57054723    -0.037534838  
     97700   303.21776     -77085.966      203.14235     -76882.823     -167.86017      52.56306       45.839522      47.461923     -26.304945     -0.47838635     0.029462585  
     97800   308.44903     -77089.893      206.64708     -76883.245      341.15449      52.665317      45.750824      47.490306     -26.286118     -0.29211274     0.078537928  
     97900   299.38607     -77086.396      200.57529     -76885.82      -175.1729       52.654341      45.648314      47.454451     -26.387382     -0.25878192     0.119661     
     98000   302.249       -77089.086      202.49333     -76886.593     -336.05882      52.776786      45.734062      47.39245      -26.400266     -0.28673473     0.11577321   
     98100   295.03786     -77082.835      197.66218     -76885.173      104.71069      52.796282      45.834156      47.413784     -26.285995     -0.25499086     0.22738757   
     98200   297.14851     -77085.311      199.07623     -76886.235      248.54544      52.73716       45.872719      47.371414     -26.282363     -0.18637486     0.16735173   
     98300   298.5814      -77085.211      200.0362      -76885.175     -96.13323       52.908435      45.782678      47.218222     -26.219262     -0.32938707     0.067810167  
     98400   302.39762     -77086.049      202.5929      -76883.457      272.58445      52.849683      45.544201      47.268341     -26.043953     -0.48096747     0.17912969   
     98500   301.83513     -77085.212      202.21605     -76882.996     -474.34337      52.914849      45.569574      47.530713     -26.252756     -0.53305519     0.063540317  
     98600   299.27089     -77081.958      200.49813     -76881.46       342.07242      53.101159      45.66995       47.361069     -26.507199     -0.51633558     0.027169001  
     98700   305.84743     -77084.842      204.90412     -76879.938      343.57975      52.876509      45.684126      47.335391     -26.423299     -0.44283501     0.18821529   
     98800   307.94931     -77086.058      206.31228     -76879.746     -250.08349      52.71226       45.600666      47.5018       -26.407877     -0.24547309     0.20028024   
     98900   301.95882     -77080.371      202.29892     -76878.072      663.78354      52.70608       45.616061      47.513975     -26.518934     -0.11831503     0.21941715   
     99000   304.63307     -77079.406      204.09055     -76875.316     -460.71869      52.908243      45.795648      47.459638     -26.55595       0.071842941    0.39725176   
     99100   301.15391     -77080.555      201.75967     -76878.795      247.28317      52.942731      45.744541      47.415778     -26.493868      0.15839795     0.52910621   
     99200   308.6304      -77084.711      206.76858     -76877.942      459.9261       52.692643      45.610835      47.541078     -26.44285       0.22729493     0.47066283   
     99300   309.47608     -77084.203      207.33515     -76876.868     -161.96459      52.712946      45.708033      47.485254     -26.367591      0.30989279     0.49865399   
     99400   309.8245      -77085.126      207.56857     -76877.558      209.55509      52.816138      45.704717      47.349167     -26.24287       0.46804126     0.68797344   
     99500   300.68021     -77080.368      201.44231     -76878.925     -684.73856      52.915006      45.703935      47.391951     -26.30305       0.33765237     0.72486761   
     99600   302.82158     -77081.36       202.87693     -76878.483      932.59319      52.97923       45.682412      47.348104     -26.370411      0.2883675      0.63243439   
     99700   306.76949     -77084.852      205.52185     -76879.33      -219.37928      53.015858      45.587566      47.415244     -26.520254      0.39609604     0.73754416   
     99800   301.73154     -77083.218      202.14666     -76881.071     -307.19387      52.911405      45.514187      47.498704     -26.783039      0.24694501     0.60432115   
     99900   304.5697      -77086.185      204.0481      -76882.137      107.90922      52.854029      45.497021      47.402381     -26.836374     -0.012658509    0.32103103   
    100000   300.43534     -77084.384      201.27826     -76883.106      1.5408955      52.867549      45.642531      47.379482     -26.672035     -0.0038116468   0.33755014   
    100099   301.28566     -77084.976      201.84793     -76883.128      456.3829       52.785991      45.738247      47.449175     -26.537746     -0.049757956    0.34257339   
Loop time of 10182.2 on 1 procs for 100000 steps with 5184 atoms

Performance: 0.849 ns/day, 28.284 hours/ns, 9.821 timesteps/s, 50.912 katom-step/s
99.6% CPU use with 1 MPI tasks x 1 OpenMP threads

MPI task timing breakdown:
Section |  min time  |  avg time  |  max time  |%varavg| %total
---------------------------------------------------------------
Pair    | 10005      | 10005      | 10005      |   0.0 | 98.26
Neigh   | 141.06     | 141.06     | 141.06     |   0.0 |  1.39
Comm    | 5.9823     | 5.9823     | 5.9823     |   0.0 |  0.06
Output  | 5.7061     | 5.7061     | 5.7061     |   0.0 |  0.06
Modify  | 21.573     | 21.573     | 21.573     |   0.0 |  0.21
Other   |            | 2.531      |            |       |  0.02

Nlocal:           5184 ave        5184 max        5184 min
Histogram: 1 0 0 0 0 0 0 0 0 0
Nghost:           6604 ave        6604 max        6604 min
Histogram: 1 0 0 0 0 0 0 0 0 0
Neighs:              0 ave           0 max           0 min
Histogram: 1 0 0 0 0 0 0 0 0 0
FullNghs:       329508 ave      329508 max      329508 min
Histogram: 1 0 0 0 0 0 0 0 0 0

Total # of neighbors = 329508
Ave neighs/atom = 63.5625
Neighbor list builds = 11323
Dangerous builds = 0
System init for write_restart ...
System init for write_data ...
[GRACE:debug, proc #0]: Data preparation timer: 5.81091e+08 mcs, graph execution time: 9.45223e+09 mcs, data preparation time fraction: 5.79 %
Total wall time: 2:50:15
